INSANE! Membrane UpperLeaflet>CER6:POPC=30.0:70.0 LowerLeaflet>CER6:POPC=30.0:70.0
 2092
    1CER6   NOH    1   2.041   0.388   6.510
    1CER6    OH    2   1.950   0.749   6.499
    1CER6   GLA    3   2.308   0.271   6.572
    1CER6   GLB    4   1.894   0.537   6.295
    1CER6   C1A    5   2.474   0.439   6.023
    1CER6   C2A    6   2.361   0.635   5.527
    1CER6   C1B    7   1.885   0.511   5.819
    1CER6   C2B    8   1.875   0.726   5.308
    2CER6   NOH    9   1.485   2.321   6.499
    2CER6    OH   10   1.686   2.020   6.429
    2CER6   GLA   11   1.214   2.234   6.584
    2CER6   GLB   12   1.659   2.266   6.259
    2CER6   C1A   13   1.137   2.059   6.018
    2CER6   C2A   14   1.147   2.210   5.494
    2CER6   C1B   15   1.624   2.256   5.778
    2CER6   C2B   16   1.620   2.090   5.242
    3CER6   NOH   17   4.476   0.372   6.584
    3CER6    OH   18   4.516   0.055   6.394
    3CER6   GLA   19   4.758   0.426   6.657
    3CER6   GLB   20   4.327   0.280   6.344
    3CER6   C1A   21   4.895   0.630   6.109
    3CER6   C2A   22   4.752   0.564   5.580
    3CER6   C1B   23   4.297   0.419   5.901
    3CER6   C2B   24   4.290   0.299   5.374
    4CER6   NOH   25   3.932   1.356   6.601
    4CER6    OH   26   3.789   1.666   6.478
    4CER6   GLA   27   3.651   1.312   6.682
    4CER6   GLB   28   4.027   1.523   6.369
    4CER6   C1A   29   3.548   1.256   6.095
    4CER6   C2A   30   3.789   1.058   5.639
    4CER6   C1B   31   3.986   1.480   5.896
    4CER6   C2B   32   4.000   1.422   5.349
    5CER6   NOH   33   2.968   3.189   6.536
    5CER6    OH   34   2.616   3.151   6.426
    5CER6   GLA   35   3.095   2.930   6.605
    5CER6   GLB   36   2.833   3.312   6.298
    5CER6   C1A   37   3.119   2.867   6.020
    5CER6   C2A   38   2.798   2.882   5.583
    5CER6   C1B   39   2.912   3.325   5.837
    5CER6   C2B   40   2.790   3.331   5.303
    6CER6   NOH   41   0.673   3.695   6.432
    6CER6    OH   42   0.557   3.350   6.479
    6CER6   GLA   43   0.434   3.837   6.532
    6CER6   GLB   44   0.704   3.462   6.245
    6CER6   C1A   45   0.220   3.758   5.984
    6CER6   C2A   46   0.273   3.822   5.439
    6CER6   C1B   47   0.579   3.397   5.799
    6CER6   C2B   48   0.699   3.343   5.272
    7CER6   NOH   49   1.441   2.934   6.598
    7CER6    OH   50   1.721   2.692   6.571
    7CER6   GLA   51   1.415   3.228   6.647
    7CER6   GLB   52   1.522   2.770   6.363
    7CER6   C1A   53   1.406   3.254   6.050
    7CER6   C2A   54   1.295   3.086   5.532
    7CER6   C1B   55   1.545   2.777   5.893
    7CER6   C2B   56   1.469   2.586   5.388
    8CER6   NOH   57   4.042   4.649   6.565
    8CER6    OH   58   4.001   0.003   6.475
    8CER6   GLA   59   3.758   4.585   6.609
    8CER6   GLB   60   4.173   4.796   6.342
    8CER6   C1A   61   3.711   4.560   6.013
    8CER6   C2A   62   3.926   4.363   5.543
    8CER6   C1B   63   4.207   4.820   5.875
    8CER6   C2B   64   4.004   4.847   5.362
    9CER6   NOH   65   4.007   3.878   6.476
    9CER6    OH   66   3.873   4.185   6.318
    9CER6   GLA   67   3.883   3.622   6.567
    9CER6   GLB   68   4.096   4.011   6.218
    9CER6   C1A   69   3.765   3.551   5.987
    9CER6   C2A   70   3.687   3.856   5.533
    9CER6   C1B   71   4.205   3.924   5.759
    9CER6   C2B   72   4.091   3.833   5.221
   10CER6   NOH   73   1.308   0.736   6.449
   10CER6    OH   74   1.458   0.430   6.306
   10CER6   GLA   75   1.076   0.628   6.600
   10CER6   GLB   76   1.416   0.695   6.171
   10CER6   C1A   77   0.933   0.341   6.098
   10CER6   C2A   78   1.108   0.327   5.582
   10CER6   C1B   79   1.362   0.772   5.705
   10CER6   C2B   80   1.374   0.556   5.197
   11POPC   NC3   81   0.775   2.042   7.055
   11POPC   PO4   82   0.373   2.192   7.069
   11POPC   GL1   83   0.456   2.077   6.650
   11POPC   GL2   84   0.656   2.316   6.630
   11POPC   C1A   85   0.351   2.030   6.218
   11POPC   D2A   86   0.280   2.081   5.730
   11POPC   C3A   87   0.644   1.989   5.458
   11POPC   C4A   88   0.409   2.041   5.031
   11POPC   C1B   89   0.631   2.441   6.269
   11POPC   C2B   90   0.584   2.489   5.847
   11POPC   C3B   91   0.462   2.477   5.367
   11POPC   C4B   92   0.339   2.534   4.883
   12POPC   NC3   93   4.156   1.665   6.866
   12POPC   PO4   94   3.722   1.724   6.911
   12POPC   GL1   95   3.688   2.027   6.580
   12POPC   GL2   96   4.008   1.986   6.538
   12POPC   C1A   97   3.648   2.103   6.144
   12POPC   D2A   98   3.725   2.414   5.756
   12POPC   C3A   99   3.519   2.218   5.381
   12POPC   C4A  100   3.703   2.109   4.937
   12POPC   C1B  101   4.141   1.934   6.182
   12POPC   C2B  102   4.265   1.888   5.776
   12POPC   C3B  103   4.112   1.907   5.305
   12POPC   C4B  104   4.085   1.790   4.822
   13POPC   NC3  105   4.124   3.227   6.880
   13POPC   PO4  106   3.727   3.051   6.895
   13POPC   GL1  107   3.769   2.933   6.486
   13POPC   GL2  108   3.651   3.231   6.444
   13POPC   C1A  109   4.073   2.814   6.177
   13POPC   D2A  110   4.177   3.057   5.758
   13POPC   C3A  111   3.920   2.850   5.422
   13POPC   C4A  112   3.734   2.834   4.968
   13POPC   C1B  113   3.432   3.239   6.146
   13POPC   C2B  114   3.445   3.166   5.741
   13POPC   C3B  115   3.526   3.179   5.276
   13POPC   C4B  116   3.550   3.300   4.806
   14POPC   NC3  117   4.642   3.556   7.062
   14POPC   PO4  118   4.290   3.648   6.834
   14POPC   GL1  119   4.434   3.785   6.488
   14POPC   GL2  120   4.696   3.915   6.535
   14POPC   C1A  121   4.538   3.575   6.138
   14POPC   D2A  122   4.784   3.709   5.742
   14POPC   C3A  123   4.816   3.556   5.317
   14POPC   C4A  124   4.567   3.991   5.292
   14POPC   C1B  125   4.848   4.031   6.201
   14POPC   C2B  126   4.952   4.198   5.821
   14POPC   C3B  127   4.998   4.242   5.329
   14POPC   C4B  128   4.981   3.888   4.971
   15POPC   NC3  129   4.728   1.386   7.023
   15POPC   PO4  130   4.354   1.259   6.850
   15POPC   GL1  131   4.515   1.488   6.525
   15POPC   GL2  132   4.777   1.300   6.554
   15POPC   C1A  133   4.457   1.398   6.093
   15POPC   D2A  134   4.332   1.135   5.686
   15POPC   C3A  135   4.578   1.494   5.544
   15POPC   C4A  136   4.437   1.537   5.090
   15POPC   C1B  137   4.872   1.147   6.226
   15POPC   C2B  138   4.861   1.080   5.819
   15POPC   C3B  139   4.982   1.167   5.374
   15POPC   C4B  140   4.737   1.119   4.958
   16POPC   NC3  141   2.860   2.102   7.314
   16POPC   PO4  142   2.960   1.871   6.963
   16POPC   GL1  143   3.135   1.990   6.585
   16POPC   GL2  144   3.002   2.275   6.600
   16POPC   C1A  145   3.041   1.958   6.154
   16POPC   D2A  146   2.731   2.027   5.776
   16POPC   C3A  147   3.009   1.919   5.425
   16POPC   C4A  148   3.196   1.949   4.979
   16POPC   C1B  149   3.050   2.416   6.251
   16POPC   C2B  150   3.111   2.389   5.834
   16POPC   C3B  151   2.984   2.431   5.373
   16POPC   C4B  152   2.851   2.364   4.915
   17POPC   NC3  153   2.341   3.899   6.935
   17POPC   PO4  154   1.985   3.652   6.966
   17POPC   GL1  155   1.963   3.745   6.565
   17POPC   GL2  156   2.009   4.046   6.600
   17POPC   C1A  157   1.978   3.628   6.143
   17POPC   D2A  158   2.349   3.621   5.822
   17POPC   C3A  159   2.041   3.668   5.501
   17POPC   C4A  160   2.370   3.674   5.144
   17POPC   C1B  161   1.926   4.116   6.246
   17POPC   C2B  162   2.012   4.086   5.843
   17POPC   C3B  163   2.391   4.105   5.545
   17POPC   C4B  164   1.991   4.116   5.289
   18POPC   NC3  165   1.557   3.712   6.872
   18POPC   PO4  166   1.294   4.012   7.035
   18POPC   GL1  167   1.246   4.051   6.602
   18POPC   GL2  168   1.130   3.753   6.610
   18POPC   C1A  169   1.471   3.967   6.224
   18POPC   D2A  170   1.577   3.716   5.809
   18POPC   C3A  171   1.265   4.000   5.594
   18POPC   C4A  172   1.583   3.828   5.278
   18POPC   C1B  173   1.137   3.615   6.260
   18POPC   C2B  174   1.080   3.562   5.845
   18POPC   C3B  175   1.153   3.556   5.368
   18POPC   C4B  176   0.788   3.872   5.304
   19POPC   NC3  177   2.032   2.922   7.394
   19POPC   PO4  178   1.896   2.766   7.013
   19POPC   GL1  179   2.093   2.947   6.680
   19POPC   GL2  180   1.846   3.099   6.617
   19POPC   C1A  181   2.215   2.854   6.273
   19POPC   D2A  182   2.304   2.885   5.793
   19POPC   C3A  183   2.305   3.220   5.489
   19POPC   C4A  184   2.057   2.884   5.236
   19POPC   C1B  185   1.822   3.128   6.245
   19POPC   C2B  186   1.866   3.202   5.834
   19POPC   C3B  187   1.761   3.281   5.373
   19POPC   C4B  188   1.907   3.265   4.897
   20POPC   NC3  189   1.419   1.189   7.202
   20POPC   PO4  190   1.107   1.244   6.886
   20POPC   GL1  191   1.342   1.261   6.528
   20POPC   GL2  192   1.071   1.418   6.453
   20POPC   C1A  193   1.576   1.371   6.174
   20POPC   D2A  194   1.471   1.342   5.685
   20POPC   C3A  195   1.513   1.412   5.224
   20POPC   C4A  196   1.412   1.010   4.959
   20POPC   C1B  197   0.876   1.215   6.215
   20POPC   C2B  198   0.882   1.202   5.802
   20POPC   C3B  199   1.047   1.183   5.348
   20POPC   C4B  200   1.083   1.381   4.898
   21POPC   NC3  201   4.947   2.065   7.018
   21POPC   PO4  202   4.590   1.818   6.948
   21POPC   GL1  203   4.591   2.030   6.593
   21POPC   GL2  204   4.373   2.226   6.643
   21POPC   C1A  205   4.809   2.168   6.239
   21POPC   D2A  206   4.771   2.172   5.749
   21POPC   C3A  207   4.824   1.939   5.345
   21POPC   C4A  208   4.512   2.025   4.985
   21POPC   C1B  209   4.274   2.342   6.301
   21POPC   C2B  210   4.270   2.379   5.888
   21POPC   C3B  211   4.396   2.301   5.425
   21POPC   C4B  212   4.055   2.437   5.101
   22POPC   NC3  213   0.768   4.611   6.996
   22POPC   PO4  214   0.327   4.644   6.983
   22POPC   GL1  215   0.328   4.511   6.566
   22POPC   GL2  216   0.587   4.688   6.547
   22POPC   C1A  217   0.246   4.522   6.136
   22POPC   D2A  218   0.427   4.778   5.756
   22POPC   C3A  219   0.484   4.467   5.427
   22POPC   C4A  220   0.265   4.570   5.008
   22POPC   C1B  221   0.738   4.595   6.222
   22POPC   C2B  222   0.883   4.487   5.849
   22POPC   C3B  223   0.905   4.840   5.541
   22POPC   C4B  224   0.572   4.927   5.209
   23POPC   NC3  225   0.704   3.057   7.125
   23POPC   PO4  226   0.304   2.995   7.016
   23POPC   GL1  227   0.346   3.036   6.599
   23POPC   GL2  228   0.647   2.981   6.605
   23POPC   C1A  229   0.282   3.137   6.178
   23POPC   D2A  230   0.152   2.821   5.824
   23POPC   C3A  231   0.433   2.968   5.495
   23POPC   C4A  232   0.346   3.064   5.024
   23POPC   C1B  233   0.751   2.984   6.240
   23POPC   C2B  234   0.872   2.932   5.838
   23POPC   C3B  235   0.927   2.740   5.389
   23POPC   C4B  236   0.773   2.787   4.924
   24POPC   NC3  237   2.956   0.807   6.896
   24POPC   PO4  238   3.015   0.394   7.005
   24POPC   GL1  239   2.848   0.402   6.605
   24POPC   GL2  240   2.890   0.100   6.569
   24POPC   C1A  241   2.916   0.602   6.203
   24POPC   D2A  242   2.865   0.586   5.694
   24POPC   C3A  243   3.141   0.414   5.342
   24POPC   C4A  244   3.239   0.555   4.869
   24POPC   C1B  245   2.934   0.103   6.197
   24POPC   C2B  246   2.924   0.070   5.785
   24POPC   C3B  247   2.661   0.176   5.400
   24POPC   C4B  248   2.645   0.169   4.910
   25POPC   NC3  249   2.364   4.641   6.937
   25POPC   PO4  250   1.990   4.406   6.925
   25POPC   GL1  251   2.130   4.499   6.529
   25POPC   GL2  252   2.108   4.811   6.576
   25POPC   C1A  253   2.143   4.518   6.096
   25POPC   D2A  254   1.896   4.764   5.749
   25POPC   C3A  255   2.216   4.621   5.453
   25POPC   C4A  256   1.997   4.538   5.036
   25POPC   C1B  257   2.254   4.948   6.260
   25POPC   C2B  258   2.349   4.983   5.857
   25POPC   C3B  259   2.135   0.155   5.467
   25POPC   C4B  260   2.205   4.977   5.026
   26POPC   NC3  261   2.015   2.377   7.239
   26POPC   PO4  262   1.972   2.008   7.001
   26POPC   GL1  263   2.024   2.135   6.589
   26POPC   GL2  264   2.128   1.839   6.570
   26POPC   C1A  265   2.171   2.300   6.204
   26POPC   D2A  266   2.350   2.382   5.750
   26POPC   C3A  267   2.009   2.402   5.438
   26POPC   C4A  268   2.323   2.326   5.075
   26POPC   C1B  269   2.139   1.808   6.205
   26POPC   C2B  270   2.208   1.891   5.806
   26POPC   C3B  271   2.137   1.891   5.329
   26POPC   C4B  272   1.923   1.638   4.966
   27POPC   NC3  273   1.534   4.402   7.032
   27POPC   PO4  274   1.207   4.695   6.962
   27POPC   GL1  275   1.170   4.524   6.549
   27POPC   GL2  276   1.477   4.446   6.568
   27POPC   C1A  277   1.225   4.733   6.155
   27POPC   D2A  278   1.466   0.054   5.847
   27POPC   C3A  279   1.408   4.847   5.433
   27POPC   C4A  280   1.098   4.538   5.184
   27POPC   C1B  281   1.598   4.431   6.216
   27POPC   C2B  282   1.542   4.395   5.806
   27POPC   C3B  283   1.552   4.352   5.326
   27POPC   C4B  284   1.671   4.211   4.871
   28POPC   NC3  285   0.815   1.183   7.219
   28POPC   PO4  286   0.364   1.191   7.108
   28POPC   GL1  287   0.514   1.309   6.671
   28POPC   GL2  288   0.423   1.040   6.607
   28POPC   C1A  289   0.458   1.446   6.241
   28POPC   D2A  290   0.389   1.550   5.756
   28POPC   C3A  291   0.535   1.326   5.373
   28POPC   C4A  292   0.648   1.604   4.975
   28POPC   C1B  293   0.324   0.988   6.263
   28POPC   C2B  294   0.366   1.026   5.864
   28POPC   C3B  295   0.257   0.739   5.513
   28POPC   C4B  296   0.384   0.909   5.092
   29POPC   NC3  297   4.897   2.847   6.914
   29POPC   PO4  298   4.563   3.113   7.001
   29POPC   GL1  299   4.512   3.096   6.586
   29POPC   GL2  300   4.431   2.797   6.587
   29POPC   C1A  301   4.756   3.104   6.217
   29POPC   D2A  302   4.720   3.199   5.735
   29POPC   C3A  303   4.905   3.029   5.347
   29POPC   C4A  304   4.538   3.173   5.045
   29POPC   C1B  305   4.546   2.686   6.246
   29POPC   C2B  306   4.637   2.710   5.840
   29POPC   C3B  307   4.452   2.796   5.399
   29POPC   C4B  308   4.459   2.687   4.912
   30POPC   NC3  309   3.195   3.813   7.073
   30POPC   PO4  310   2.793   3.872   6.957
   30POPC   GL1  311   2.968   4.037   6.602
   30POPC   GL2  312   3.013   3.720   6.525
   30POPC   C1A  313   2.923   4.178   6.190
   30POPC   D2A  314   2.806   3.857   5.831
   30POPC   C3A  315   2.808   3.850   5.372
   30POPC   C4A  316   3.052   3.972   4.964
   30POPC   C1B  317   3.151   3.655   6.181
   30POPC   C2B  318   3.288   3.656   5.787
   30POPC   C3B  319   3.250   3.600   5.305
   30POPC   C4B  320   3.056   3.450   4.868
   31POPC   NC3  321   0.032   4.967   6.847
   31POPC   PO4  322   4.592   4.974   6.803
   31POPC   GL1  323   4.584   4.637   6.530
   31POPC   GL2  324   4.891   4.638   6.545
   31POPC   C1A  325   4.551   4.425   6.150
   31POPC   D2A  326   4.509   4.426   5.665
   31POPC   C3A  327   4.521   4.850   5.471
   31POPC   C4A  328   4.487   4.507   5.142
   31POPC   C1B  329   4.951   4.863   6.262
   31POPC   C2B  330   4.926   4.883   5.850
   31POPC   C3B  331   0.008   4.757   5.398
   31POPC   C4B  332   4.831   4.807   4.945
   32POPC   NC3  333   0.296   0.773   6.954
   32POPC   PO4  334   0.279   0.352   6.911
   32POPC   GL1  335   0.424   0.403   6.513
   32POPC   GL2  336   0.609   0.640   6.558
   32POPC   C1A  337   0.397   0.424   6.074
   32POPC   D2A  338   0.611   0.247   5.668
   32POPC   C3A  339   0.188   0.217   5.515
   32POPC   C4A  340   0.434   0.402   5.148
   32POPC   C1B  341   0.711   0.753   6.205
   32POPC   C2B  342   0.769   0.716   5.780
   32POPC   C3B  343   0.816   0.710   5.283
   32POPC   C4B  344   0.679   0.632   4.786
   33POPC   NC3  345   2.080   1.586   7.077
   33POPC   PO4  346   1.872   1.205   7.110
   33POPC   GL1  347   1.917   1.156   6.645
   33POPC   GL2  348   2.144   1.385   6.643
   33POPC   C1A  349   2.047   1.098   6.222
   33POPC   D2A  350   2.166   1.371   5.818
   33POPC   C3A  351   2.091   1.338   5.361
   33POPC   C4A  352   1.893   1.143   4.952
   33POPC   C1B  353   2.374   1.445   6.332
   33POPC   C2B  354   2.602   1.562   5.988
   33POPC   C3B  355   2.571   1.618   5.499
   33POPC   C4B  356   2.506   1.436   5.045
   34POPC   NC3  357   3.299   1.570   6.970
   34POPC   PO4  358   3.059   1.202   7.070
   34POPC   GL1  359   3.030   1.207   6.625
   34POPC   GL2  360   3.073   1.501   6.583
   34POPC   C1A  361   2.866   1.146   6.214
   34POPC   D2A  362   2.567   1.029   5.833
   34POPC   C3A  363   2.733   1.128   5.415
   34POPC   C4A  364   2.886   1.084   4.958
   34POPC   C1B  365   3.170   1.524   6.223
   34POPC   C2B  366   3.140   1.538   5.802
   34POPC   C3B  367   3.173   1.433   5.316
   34POPC   C4B  368   3.339   1.285   4.865
   35POPC   NC3  369   3.110   4.961   7.075
   35POPC   PO4  370   2.799   4.670   7.041
   35POPC   GL1  371   2.805   4.493   6.651
   35POPC   GL2  372   3.112   4.465   6.683
   35POPC   C1A  373   2.727   4.675   6.253
   35POPC   D2A  374   2.617   4.528   5.799
   35POPC   C3A  375   2.875   4.365   5.456
   35POPC   C4A  376   2.667   4.716   5.181
   35POPC   C1B  377   3.195   4.541   6.331
   35POPC   C2B  378   3.175   4.614   5.926
   35POPC   C3B  379   3.456   4.778   5.573
   35POPC   C4B  380   3.563   4.701   5.111
   36CER6   NOH  381   3.640   2.348   3.387
   36CER6    OH  382   3.879   2.580   3.545
   36CER6   GLA  383   3.809   2.123   3.297
   36CER6   GLB  384   3.619   2.479   3.655
   36CER6   C1A  385   3.791   1.988   3.878
   36CER6   C2A  386   3.848   2.027   4.418
   36CER6   C1B  387   3.573   2.403   4.121
   36CER6   C2B  388   3.799   2.490   4.612
   37CER6   NOH  389   2.871   1.522   3.459
   37CER6    OH  390   3.185   1.680   3.567
   37CER6   GLA  391   2.881   1.232   3.393
   37CER6   GLB  392   2.919   1.693   3.705
   37CER6   C1A  393   3.052   1.114   3.953
   37CER6   C2A  394   2.858   1.152   4.456
   37CER6   C1B  395   2.870   1.655   4.183
   37CER6   C2B  396   2.925   1.568   4.735
   38CER6   NOH  397   0.666   2.829   3.492
   38CER6    OH  398   0.828   3.147   3.561
   38CER6   GLA  399   0.479   3.035   3.387
   38CER6   GLB  400   0.871   2.882   3.703
   38CER6   C1A  401   0.391   3.094   3.976
   38CER6   C2A  402   0.286   2.755   4.407
   38CER6   C1B  403   0.770   2.825   4.169
   38CER6   C2B  404   0.551   3.152   4.567
   39CER6   NOH  405   1.347   1.619   3.467
   39CER6    OH  406   1.685   1.544   3.597
   39CER6   GLA  407   1.188   1.387   3.375
   39CER6   GLB  408   1.469   1.701   3.727
   39CER6   C1A  409   1.150   1.179   3.937
   39CER6   C2A  410   1.246   1.151   4.477
   39CER6   C1B  411   1.353   1.619   4.183
   39CER6   C2B  412   1.463   1.663   4.725
   40CER6   NOH  413   4.385   2.239   3.470
   40CER6    OH  414   4.497   2.565   3.600
   40CER6   GLA  415   4.661   2.151   3.399
   40CER6   GLB  416   4.253   2.408   3.682
   40CER6   C1A  417   4.827   2.050   3.968
   40CER6   C2A  418   4.619   1.966   4.472
   40CER6   C1B  419   4.110   2.397   4.132
   40CER6   C2B  420   4.255   2.290   4.648
   41CER6   NOH  421   4.846   3.052   3.553
   41CER6    OH  422   4.898   3.357   3.752
   41CER6   GLA  423   4.597   3.075   3.405
   41CER6   GLB  424   4.901   3.074   3.844
   41CER6   C1A  425   4.347   2.869   3.906
   41CER6   C2A  426   4.240   2.834   4.444
   41CER6   C1B  427   4.790   2.896   4.264
   41CER6   C2B  428   4.912   2.924   4.795
   42CER6   NOH  429   1.252   0.635   3.492
   42CER6    OH  430   0.998   0.393   3.592
   42CER6   GLA  431   1.392   0.384   3.428
   42CER6   GLB  432   1.045   0.668   3.709
   42CER6   C1A  433   1.369   0.230   4.011
   42CER6   C2A  434   1.519   0.316   4.536
   42CER6   C1B  435   1.023   0.730   4.181
   42CER6   C2B  436   1.168   0.644   4.707
   43CER6   NOH  437   4.017   3.791   3.540
   43CER6    OH  438   4.073   4.150   3.604
   43CER6   GLA  439   3.750   3.871   3.441
   43CER6   GLB  440   4.191   3.913   3.752
   43CER6   C1A  441   3.610   3.979   4.012
   43CER6   C2A  442   3.573   3.693   4.477
   43CER6   C1B  443   4.131   3.847   4.219
   43CER6   C2B  444   3.936   3.944   4.729
   44CER6   NOH  445   3.870   3.242   3.501
   44CER6    OH  446   4.213   3.151   3.594
   44CER6   GLA  447   3.804   2.967   3.405
   44CER6   GLB  448   4.029   3.341   3.737
   44CER6   C1A  449   3.843   2.815   3.974
   44CER6   C2A  450   3.708   2.960   4.471
   44CER6   C1B  451   3.970   3.332   4.212
   44CER6   C2B  452   4.084   3.235   4.747
   45CER6   NOH  453   2.273   1.452   3.400
   45CER6    OH  454   2.515   1.706   3.507
   45CER6   GLA  455   2.015   1.590   3.388
   45CER6   GLB  456   2.456   1.440   3.638
   45CER6   C1A  457   1.945   1.439   3.967
   45CER6   C2A  458   1.755   1.313   4.472
   45CER6   C1B  459   2.458   1.343   4.106
   45CER6   C2B  460   2.246   1.421   4.610
   46POPC   NC3  461   3.621   0.239   3.045
   46POPC   PO4  462   3.941   0.537   2.967
   46POPC   GL1  463   3.765   0.680   3.352
   46POPC   GL2  464   4.067   0.659   3.431
   46POPC   C1A  465   3.624   0.571   3.772
   46POPC   D2A  466   3.764   0.348   4.202
   46POPC   C3A  467   3.724   0.518   4.639
   46POPC   C4A  468   3.626   0.214   5.022
   46POPC   C1B  469   4.090   0.683   3.800
   46POPC   C2B  470   4.066   0.763   4.206
   46POPC   C3B  471   4.179   0.758   4.673
   46POPC   C4B  472   3.985   0.599   5.096
   47POPC   NC3  473   1.068   3.804   3.029
   47POPC   PO4  474   1.326   4.134   3.167
   47POPC   GL1  475   1.255   3.944   3.513
   47POPC   GL2  476   1.153   3.662   3.458
   47POPC   C1A  477   1.428   4.039   3.907
   47POPC   D2A  478   1.594   4.252   4.326
   47POPC   C3A  479   1.405   3.916   4.589
   47POPC   C4A  480   1.442   3.524   4.910
   47POPC   C1B  481   0.989   3.685   3.785
   47POPC   C2B  482   0.992   3.813   4.172
   47POPC   C3B  483   1.166   3.508   4.487
   47POPC   C4B  484   0.924   3.630   4.879
   48POPC   NC3  485   3.011   2.828   2.999
   48POPC   PO4  486   2.656   3.073   3.087
   48POPC   GL1  487   2.876   2.996   3.436
   48POPC   GL2  488   2.833   2.694   3.430
   48POPC   C1A  489   3.013   3.060   3.845
   48POPC   D2A  490   3.275   2.824   4.194
   48POPC   C3A  491   3.173   2.987   4.615
   48POPC   C4A  492   3.086   2.954   5.098
   48POPC   C1B  493   2.751   2.667   3.789
   48POPC   C2B  494   2.709   2.793   4.184
   48POPC   C3B  495   2.712   2.764   4.661
   48POPC   C4B  496   2.601   2.753   5.145
   49POPC   NC3  497   2.232   3.339   2.988
   49POPC   PO4  498   2.081   3.759   2.934
   49POPC   GL1  499   2.023   3.797   3.360
   49POPC   GL2  500   2.106   4.073   3.389
   49POPC   C1A  501   2.087   3.674   3.783
   49POPC   D2A  502   2.427   3.743   4.141
   49POPC   C3A  503   2.214   3.640   4.545
   49POPC   C4A  504   1.923   3.768   4.915
   49POPC   C1B  505   1.963   4.137   3.727
   49POPC   C2B  506   2.068   4.129   4.129
   49POPC   C3B  507   2.390   4.128   4.488
   49POPC   C4B  508   2.365   4.149   4.968
   50POPC   NC3  509   3.833   0.968   2.896
   50POPC   PO4  510   4.024   1.338   2.995
   50POPC   GL1  511   3.893   1.279   3.393
   50POPC   GL2  512   3.672   1.497   3.371
   50POPC   C1A  513   3.873   1.109   3.806
   50POPC   D2A  514   3.615   1.028   4.225
   50POPC   C3A  515   3.785   1.089   4.655
   50POPC   C4A  516   3.703   1.035   5.134
   50POPC   C1B  517   3.613   1.554   3.739
   50POPC   C2B  518   3.648   1.564   4.159
   50POPC   C3B  519   3.634   1.625   4.642
   50POPC   C4B  520   3.605   1.661   5.138
   51POPC   NC3  521   2.764   0.319   3.048
   51POPC   PO4  522   3.190   0.365   3.036
   51POPC   GL1  523   3.085   0.427   3.459
   51POPC   GL2  524   2.955   0.700   3.424
   51POPC   C1A  525   3.088   0.387   3.906
   51POPC   D2A  526   3.326   0.593   4.295
   51POPC   C3A  527   3.358   0.181   4.522
   51POPC   C4A  528   2.897   0.320   4.511
   51POPC   C1B  529   2.806   0.753   3.771
   51POPC   C2B  530   2.717   0.733   4.188
   51POPC   C3B  531   2.649   0.719   4.682
   51POPC   C4B  532   2.731   0.634   5.162
   52POPC   NC3  533   4.437   1.383   3.161
   52POPC   PO4  534   4.861   1.360   3.074
   52POPC   GL1  535   4.818   1.141   3.438
   52POPC   GL2  536   4.539   1.019   3.432
   52POPC   C1A  537   4.833   1.177   3.869
   52POPC   D2A  538   4.711   1.559   4.149
   52POPC   C3A  539   4.800   1.272   4.482
   52POPC   C4A  540   4.834   1.641   4.809
   52POPC   C1B  541   4.387   1.034   3.781
   52POPC   C2B  542   4.365   1.169   4.180
   52POPC   C3B  543   4.305   1.270   4.656
   52POPC   C4B  544   4.230   1.061   5.098
   53POPC   NC3  545   2.138   0.719   2.790
   53POPC   PO4  546   2.342   0.462   3.042
   53POPC   GL1  547   2.075   0.393   3.370
   53POPC   GL2  548   2.076   0.710   3.383
   53POPC   C1A  549   2.133   0.331   3.800
   53POPC   D2A  550   1.928   0.442   4.236
   53POPC   C3A  551   2.234   0.386   4.580
   53POPC   C4A  552   2.252   0.471   5.057
   53POPC   C1B  553   2.196   0.812   3.724
   53POPC   C2B  554   2.208   0.878   4.138
   53POPC   C3B  555   2.189   0.909   4.620
   53POPC   C4B  556   2.346   0.962   5.096
   54POPC   NC3  557   0.503   1.903   3.038
   54POPC   PO4  558   0.660   2.310   3.082
   54POPC   GL1  559   0.417   2.198   3.441
   54POPC   GL2  560   0.693   2.054   3.470
   54POPC   C1A  561   0.376   2.020   3.846
   54POPC   D2A  562   0.645   1.850   4.231
   54POPC   C3A  563   0.348   2.053   4.523
   54POPC   C4A  564   4.963   2.180   4.815
   54POPC   C1B  565   0.770   2.266   3.761
   54POPC   C2B  566   0.677   2.343   4.154
   54POPC   C3B  567   0.775   2.382   4.614
   54POPC   C4B  568   0.852   2.285   5.088
   55POPC   NC3  569   4.248   0.203   3.014
   55POPC   PO4  570   4.686   0.168   2.946
   55POPC   GL1  571   4.720   0.418   3.346
   55POPC   GL2  572   4.614   0.139   3.441
   55POPC   C1A  573   4.676   0.606   3.766
   55POPC   D2A  574   4.885   0.755   4.203
   55POPC   C3A  575   4.691   0.747   4.616
   55POPC   C4A  576   4.518   0.645   5.073
   55POPC   C1B  577   4.696   0.101   3.805
   55POPC   C2B  578   4.787   0.171   4.210
   55POPC   C3B  579   4.771   0.236   4.697
   55POPC   C4B  580   4.778   0.218   5.204
   56POPC   NC3  581   0.707   4.769   3.047
   56POPC   PO4  582   0.262   4.740   3.097
   56POPC   GL1  583   0.435   4.740   3.469
   56POPC   GL2  584   0.576   4.465   3.436
   56POPC   C1A  585   0.235   4.714   3.854
   56POPC   D2A  586   0.073   4.404   4.195
   56POPC   C3A  587   0.282   4.662   4.521
   56POPC   C4A  588   0.259   0.054   4.829
   56POPC   C1B  589   0.597   4.394   3.801
   56POPC   C2B  590   0.626   4.359   4.215
   56POPC   C3B  591   0.778   4.143   4.617
   56POPC   C4B  592   0.742   4.589   4.833
   57POPC   NC3  593   0.306   3.566   3.106
   57POPC   PO4  594   0.745   3.479   3.097
   57POPC   GL1  595   0.715   3.742   3.444
   57POPC   GL2  596   0.508   3.942   3.357
   57POPC   C1A  597   0.524   3.592   3.826
   57POPC   D2A  598   0.144   3.505   4.150
   57POPC   C3A  599   0.457   3.643   4.478
   57POPC   C4A  600   0.419   3.623   4.966
   57POPC   C1B  601   0.350   4.021   3.692
   57POPC   C2B  602   0.313   3.983   4.107
   57POPC   C3B  603   0.268   4.109   4.579
   57POPC   C4B  604   0.455   4.124   5.034
   58POPC   NC3  605   4.816   4.734   2.990
   58POPC   PO4  606   4.518   4.409   2.966
   58POPC   GL1  607   4.562   4.597   3.360
   58POPC   GL2  608   4.358   4.809   3.284
   58POPC   C1A  609   4.705   4.582   3.782
   58POPC   D2A  610   4.549   4.368   4.205
   58POPC   C3A  611   4.767   4.684   4.466
   58POPC   C4A  612   4.868   4.341   4.805
   58POPC   C1B  613   4.325   4.865   3.657
   58POPC   C2B  614   4.362   4.842   4.078
   58POPC   C3B  615   4.284   4.760   4.554
   58POPC   C4B  616   4.346   4.980   4.986
   59POPC   NC3  617   2.741   1.987   3.027
   59POPC   PO4  618   2.815   2.421   3.054
   59POPC   GL1  619   2.875   2.214   3.433
   59POPC   GL2  620   3.176   2.280   3.442
   59POPC   C1A  621   2.807   2.190   3.861
   59POPC   D2A  622   2.996   2.377   4.277
   59POPC   C3A  623   2.857   2.030   4.552
   59POPC   C4A  624   2.633   1.916   4.993
   59POPC   C1B  625   3.287   2.123   3.770
   59POPC   C2B  626   3.313   1.970   4.161
   59POPC   C3B  627   3.364   2.204   4.578
   59POPC   C4B  628   3.343   2.498   4.979
   60POPC   NC3  629   2.428   2.675   3.115
   60POPC   PO4  630   2.115   2.906   2.923
   60POPC   GL1  631   1.986   3.023   3.330
   60POPC   GL2  632   2.284   3.088   3.372
   60POPC   C1A  633   1.928   2.779   3.699
   60POPC   D2A  634   2.185   2.769   4.121
   60POPC   C3A  635   2.017   3.016   4.466
   60POPC   C4A  636   2.223   2.734   4.792
   60POPC   C1B  637   2.320   3.255   3.691
   60POPC   C2B  638   2.387   3.240   4.091
   60POPC   C3B  639   2.503   3.204   4.538
   60POPC   C4B  640   2.402   3.191   4.998
   61POPC   NC3  641   0.270   1.155   3.042
   61POPC   PO4  642   0.595   1.468   3.069
   61POPC   GL1  643   0.430   1.407   3.448
   61POPC   GL2  644   0.499   1.098   3.445
   61POPC   C1A  645   0.504   1.487   3.870
   61POPC   D2A  646   0.785   1.365   4.259
   61POPC   C3A  647   0.415   1.484   4.513
   61POPC   C4A  648   0.664   1.138   4.750
   61POPC   C1B  649   0.349   1.029   3.776
   61POPC   C2B  650   0.249   1.113   4.169
   61POPC   C3B  651   0.186   0.989   4.626
   61POPC   C4B  652   0.206   1.351   4.959
   62POPC   NC3  653   0.880   2.975   3.109
   62POPC   PO4  654   1.205   2.695   3.122
   62POPC   GL1  655   1.379   2.868   3.479
   62POPC   GL2  656   1.207   3.126   3.434
   62POPC   C1A  657   1.325   2.717   3.892
   62POPC   D2A  658   1.210   2.566   4.353
   62POPC   C3A  659   1.503   2.843   4.594
   62POPC   C4A  660   1.541   2.966   5.062
   62POPC   C1B  661   1.148   3.266   3.775
   62POPC   C2B  662   0.917   3.287   4.120
   62POPC   C3B  663   1.031   3.041   4.550
   62POPC   C4B  664   1.093   3.160   5.027
   63POPC   NC3  665   1.117   2.254   3.076
   63POPC   PO4  666   1.441   1.946   3.093
   63POPC   GL1  667   1.405   2.150   3.476
   63POPC   GL2  668   1.133   2.007   3.492
   63POPC   C1A  669   1.547   2.174   3.904
   63POPC   D2A  670   1.708   1.967   4.338
   63POPC   C3A  671   1.457   2.188   4.667
   63POPC   C4A  672   1.239   2.552   4.915
   63POPC   C1B  673   1.097   1.981   3.858
   63POPC   C2B  674   1.108   2.065   4.264
   63POPC   C3B  675   0.995   1.919   4.709
   63POPC   C4B  676   1.110   1.809   5.175
   64POPC   NC3  677   1.466   4.563   3.146
   64POPC   PO4  678   1.153   4.829   3.006
   64POPC   GL1  679   1.199   4.822   3.447
   64POPC   GL2  680   1.026   4.561   3.426
   64POPC   C1A  681   1.487   4.684   3.767
   64POPC   D2A  682   1.542   4.775   4.255
   64POPC   C3A  683   1.242   4.887   4.592
   64POPC   C4A  684   1.523   4.714   4.950
   64POPC   C1B  685   1.062   4.435   3.779
   64POPC   C2B  686   1.137   4.433   4.194
   64POPC   C3B  687   1.218   4.385   4.676
   64POPC   C4B  688   1.194   4.053   5.046
   65POPC   NC3  689   4.606   3.978   2.914
   65POPC   PO4  690   4.881   3.659   3.009
   65POPC   GL1  691   4.689   3.818   3.369
   65POPC   GL2  692   4.605   3.523   3.430
   65POPC   C1A  693   4.750   4.056   3.734
   65POPC   D2A  694   4.679   3.761   4.114
   65POPC   C3A  695   4.704   3.937   4.529
   65POPC   C4A  696   4.381   4.154   4.820
   65POPC   C1B  697   4.486   3.420   3.765
   65POPC   C2B  698   4.487   3.292   4.156
   65POPC   C3B  699   4.693   3.383   4.575
   65POPC   C4B  700   4.483   3.660   4.918
   66POPC   NC3  701   1.885   1.961   3.065
   66POPC   PO4  702   2.316   1.885   3.104
   66POPC   GL1  703   2.410   2.122   3.428
   66POPC   GL2  704   2.136   2.279   3.365
   66POPC   C1A  705   2.335   1.931   3.824
   66POPC   D2A  706   2.334   1.836   4.307
   66POPC   C3A  707   2.363   2.215   4.578
   66POPC   C4A  708   1.950   2.103   4.816
   66POPC   C1B  709   2.009   2.279   3.713
   66POPC   C2B  710   2.048   2.281   4.122
   66POPC   C3B  711   1.869   2.492   4.505
   66POPC   C4B  712   1.775   2.535   4.983
   67POPC   NC3  713   2.106   4.201   2.939
   67POPC   PO4  714   2.394   4.483   3.100
   67POPC   GL1  715   2.106   4.509   3.392
   67POPC   GL2  716   1.957   4.746   3.382
   67POPC   C1A  717   2.247   4.505   3.792
   67POPC   D2A  718   2.339   4.571   4.253
   67POPC   C3A  719   2.000   4.483   4.543
   67POPC   C4A  720   2.430   4.607   4.758
   67POPC   C1B  721   1.956   4.879   3.737
   67POPC   C2B  722   2.006   4.941   4.152
   67POPC   C3B  723   1.889   4.984   4.630
   67POPC   C4B  724   1.732   0.175   5.075
   68POPC   NC3  725   3.720   4.502   2.964
   68POPC   PO4  726   3.915   4.891   3.036
   68POPC   GL1  727   3.963   4.610   3.393
   68POPC   GL2  728   3.649   4.596   3.413
   68POPC   C1A  729   3.989   4.575   3.830
   68POPC   D2A  730   3.856   4.812   4.246
   68POPC   C3A  731   3.888   4.419   4.488
   68POPC   C4A  732   4.010   4.513   4.952
   68POPC   C1B  733   3.508   4.542   3.760
   68POPC   C2B  734   3.399   4.590   4.159
   68POPC   C3B  735   3.439   4.672   4.624
   68POPC   C4B  736   3.518   4.242   4.855
   69POPC   NC3  737   2.842   4.486   3.031
   69POPC   PO4  738   3.279   4.482   3.072
   69POPC   GL1  739   3.207   4.670   3.464
   69POPC   GL2  740   2.970   4.469   3.470
   69POPC   C1A  741   3.038   4.803   3.849
   69POPC   D2A  742   2.710   4.925   4.207
   69POPC   C3A  743   2.920   4.822   4.611
   69POPC   C4A  744   3.142   0.021   4.999
   69POPC   C1B  745   2.921   4.323   3.796
   69POPC   C2B  746   3.007   4.197   4.173
   69POPC   C3B  747   2.890   4.308   4.615
   69POPC   C4B  748   3.094   4.506   5.008
   70POPC   NC3  749   0.103   0.325   3.002
   70POPC   PO4  750   0.298   0.702   3.077
   70POPC   GL1  751   0.308   0.476   3.439
   70POPC   GL2  752   0.614   0.486   3.473
   70POPC   C1A  753   0.211   0.552   3.856
   70POPC   D2A  754   0.493   0.685   4.244
   70POPC   C3A  755   0.226   0.485   4.559
   70POPC   C4A  756   0.010   0.603   4.983
   70POPC   C1B  757   0.670   0.428   3.842
   70POPC   C2B  758   0.768   0.259   4.212
   70POPC   C3B  759   0.768   0.130   4.677
   70POPC   C4B  760   0.963   0.243   5.106
   71W        W  761   4.307   3.008   8.135
   72W        W  762   3.290   1.656   7.809
   73W        W  763   0.201   2.941   1.129
   74W        W  764   2.909   4.329   7.882
   75W        W  765   3.532   1.604   1.230
   76W        W  766   2.544   3.502   8.745
   77W        W  767   2.173   3.876   8.187
   78W        W  768   1.649   1.341   3.224
   79W        W  769   3.883   2.915   1.928
   80W        W  770   3.054   1.068   8.286
   81W        W  771   4.782   2.493   2.685
   82W        W  772   1.607   2.508   0.854
   83W        W  773   0.205   4.808   0.225
   84W        W  774   3.002   4.864   2.007
   85W        W  775   4.800   4.780   8.867
   86W        W  776   0.639   4.799   1.473
   87W        W  777   2.872   2.009   0.908
   88W        W  778   2.973   2.429   8.140
   89W        W  779   2.896   0.621   9.062
   90W        W  780   4.833   2.529   0.614
   91W        W  781   0.604   2.077   0.072
   92W        W  782   3.883   3.367   9.095
   93W        W  783   1.033   1.450   9.242
   94W        W  784   4.417   0.298   8.891
   95W        W  785   0.400   2.558   8.896
   96W        W  786   2.619   3.900   7.911
   97W        W  787   3.530   1.083   8.449
   98W        W  788   2.131   1.143   8.085
   99W        W  789   3.341   4.350   8.160
  100W        W  790   4.780   1.103   0.654
  101W        W  791   2.183   0.281   9.571
  102W        W  792   1.576   3.533   0.871
  103W        W  793   3.010   2.493   1.163
  104W        W  794   3.830   2.805   2.955
  105W        W  795   1.027   2.110   0.725
  106W        W  796   1.556   2.142   7.222
  107W        W  797   2.930   4.447   2.346
  108W        W  798   3.298   2.068   0.583
  109W        W  799   4.369   3.464   9.864
  110W        W  800   2.539   4.433   0.162
  111W        W  801   2.045   4.321   1.417
  112W        W  802   0.656   4.866   0.467
  113W        W  803   0.173   2.771   8.338
  114W        W  804   1.607   2.192   9.951
  115W        W  805   3.265   3.400   7.361
  116W        W  806   4.289   4.755   0.649
  117W        W  807   2.164   1.509   8.869
  118W        W  808   0.375   3.748   8.262
  119W        W  809   2.430   4.616   1.312
  120W        W  810   1.706   3.747   7.456
  121W        W  811   2.933   3.381   8.384
  122W        W  812   1.495   0.263   7.381
  123W        W  813   2.449   1.700   9.602
  124W        W  814   1.688   1.164   9.872
  125W        W  815   4.795   2.518   1.621
  126W        W  816   3.856   1.159   1.691
  127W        W  817   0.619   4.798   8.906
  128W        W  818   1.569   1.054   2.287
  129W        W  819   3.483   4.001   2.899
  130W        W  820   3.956   1.573   1.994
  131W        W  821   3.355   2.167   9.119
  132W        W  822   0.189   0.296   1.448
  133W        W  823   0.155   3.002   8.784
  134W        W  824   1.495   4.783   9.001
  135W        W  825   0.228   0.537   7.582
  136W        W  826   3.482   0.770   0.671
  137W        W  827   1.692   3.071   8.652
  138W        W  828   2.973   1.465   8.618
  139W        W  829   2.536   3.982   9.866
  140W        W  830   3.791   1.518   8.386
  141W        W  831   3.008   4.271   8.935
  142W        W  832   4.861   0.241   9.129
  143W        W  833   0.249   1.600   0.650
  144W        W  834   0.772   1.927   8.666
  145W        W  835   0.323   3.977   7.826
  146W        W  836   2.960   4.251   9.957
  147W        W  837   2.089   2.430   8.153
  148W        W  838   0.285   2.452   9.388
  149W        W  839   2.961   3.990   2.132
  150W        W  840   4.375   3.523   2.983
  151W        W  841   0.790   1.093   8.150
  152W        W  842   0.865   3.948   7.317
  153W        W  843   2.108   2.914   8.388
  154W        W  844   1.563   4.324   7.687
  155W        W  845   1.062   1.163   1.672
  156W        W  846   2.908   0.625   9.567
  157W        W  847   0.182   4.844   1.196
  158W        W  848   2.195   0.229   0.086
  159W        W  849   3.878   2.965   1.415
  160W        W  850   2.565   3.028   8.609
  161W        W  851   2.135   1.662   2.456
  162W        W  852   2.983   4.315   0.862
  163W        W  853   3.461   2.942   7.581
  164W        W  854   3.963   1.191   0.187
  165W        W  855   0.700   3.000   7.625
  166W        W  856   2.008   4.765   8.276
  167W        W  857   2.936   2.098   1.985
  168W        W  858   4.755   4.349   8.095
  169W        W  859   4.772   2.196   9.410
  170W        W  860   3.508   1.632   0.727
  171W        W  861   3.410   4.230   0.313
  172W        W  862   4.351   4.532   1.236
  173W        W  863   2.047   3.368   0.821
  174W        W  864   3.792   4.397   7.970
  175W        W  865   2.000   1.147   0.690
  176W        W  866   0.204   4.853   9.158
  177W        W  867   3.727   2.043   7.734
  178W        W  868   4.766   2.351   7.398
  179W        W  869   2.036   0.670   7.300
  180W        W  870   0.308   0.272   8.376
  181W        W  871   0.972   1.219   2.702
  182W        W  872   4.475   4.078   1.398
  183W        W  873   3.365   3.800   1.893
  184W        W  874   3.868   0.004   0.738
  185W        W  875   1.678   2.954   1.122
  186W        W  876   0.192   3.532   8.746
  187W        W  877   1.503   1.598   9.282
  188W        W  878   0.884   3.424   9.640
  189W        W  879   1.012   0.082   7.271
  190W        W  880   3.502   3.426   7.799
  191W        W  881   2.518   2.511   7.885
  192W        W  882   4.283   0.755   7.085
  193W        W  883   4.229   2.111   8.850
  194W        W  884   1.981   0.662   8.362
  195W        W  885   2.142   2.928   9.402
  196W        W  886   0.693   4.749   7.860
  197W        W  887   4.821   0.679   1.441
  198W        W  888   3.901   1.891   2.863
  199W        W  889   1.727   0.293   9.909
  200W        W  890   0.712   1.666   7.408
  201W        W  891   0.075   3.378   9.209
  202W        W  892   3.369   0.739   7.670
  203W        W  893   1.181   2.955   1.279
  204W        W  894   1.691   4.798   7.484
  205W        W  895   0.677   2.561   7.316
  206W        W  896   4.648   1.573   8.339
  207W        W  897   1.571   0.741   0.151
  208W        W  898   0.257   0.720   1.170
  209W        W  899   3.011   3.354   9.426
  210W        W  900   2.555   1.563   1.599
  211W        W  901   4.265   1.152   1.988
  212W        W  902   3.266   2.075   0.068
  213W        W  903   4.297   4.411   7.836
  214W        W  904   3.460   2.504   0.871
  215W        W  905   0.668   3.146   2.679
  216W        W  906   1.988   0.697   9.396
  217W        W  907   0.189   3.038   1.635
  218W        W  908   1.639   4.387   1.154
  219W        W  909   1.591   2.391   2.881
  220W        W  910   1.510   1.158   0.916
  221W        W  911   3.806   2.950   9.366
  222W        W  912   1.197   0.289   8.219
  223W        W  913   1.031   3.448   8.183
  224W        W  914   3.093   3.945   1.172
  225W        W  915   2.751   0.165   7.378
  226W        W  916   0.246   4.874   8.105
  227W        W  917   0.765   1.170   9.657
  228W        W  918   4.749   4.786   0.424
  229W        W  919   3.018   4.299   9.439
  230W        W  920   0.760   0.680   2.383
  231W        W  921   0.265   2.506   1.382
  232W        W  922   4.408   0.286   7.856
  233W        W  923   0.610   0.184   2.286
  234W        W  924   2.474   1.991   1.838
  235W        W  925   1.259   1.136   9.579
  236W        W  926   4.259   0.263   2.507
  237W        W  927   3.932   2.542   0.122
  238W        W  928   0.798   3.959   0.264
  239W        W  929   2.118   2.900   0.429
  240W        W  930   0.232   2.007   1.433
  241W        W  931   2.919   4.742   8.679
  242W        W  932   3.428   1.965   2.631
  243W        W  933   3.389   3.077   9.109
  244W        W  934   3.358   0.655   8.662
  245W        W  935   1.131   3.027   1.797
  246W        W  936   0.202   0.697   0.667
  247W        W  937   2.889   1.105   0.468
  248W        W  938   2.582   3.782   2.906
  249W        W  939   3.717   2.100   0.290
  250W        W  940   0.108   3.487   7.907
  251W        W  941   4.347   0.867   0.950
  252W        W  942   2.553   2.562   8.397
  253W        W  943   1.074   1.113   2.196
  254W        W  944   2.910   1.665   9.813
  255W        W  945   0.652   3.469   0.604
  256W        W  946   0.154   2.020   7.693
  257W        W  947   1.163   2.980   7.392
  258W        W  948   1.569   4.313   8.232
  259W        W  949   4.733   0.653   0.421
  260W        W  950   0.595   0.660   8.886
  261W        W  951   4.800   4.800   7.860
  262W        W  952   3.499   3.927   9.938
  263W        W  953   4.887   3.922   8.327
  264W        W  954   3.830   2.911   8.855
  265W        W  955   3.955   2.051   9.728
  266W        W  956   1.592   4.338   8.743
  267W        W  957   0.291   1.569   2.187
  268W        W  958   1.230   2.867   0.779
  269W        W  959   2.579   3.074   9.120
  270W        W  960   0.213   4.441   8.881
  271W        W  961   4.320   2.981   2.182
  272W        W  962   4.789   4.297   2.197
  273W        W  963   3.996   0.315   0.286
  274W        W  964   0.759   2.625   2.711
  275W        W  965   2.976   2.874   9.360
  276W        W  966   3.404   4.790   7.909
  277W        W  967   1.609   2.930   1.624
  278W        W  968   4.757   4.330   9.657
  279W        W  969   0.578   3.966   0.715
  280W        W  970   0.306   2.034   1.948
  281W        W  971   2.004   3.414   1.331
  282W        W  972   1.279   1.154   8.592
  283W        W  973   2.089   4.869   0.707
  284W        W  974   1.283   0.760   1.888
  285W        W  975   0.660   1.495   8.905
  286W        W  976   3.063   3.867   8.155
  287W        W  977   3.403   0.234   1.926
  288W        W  978   2.176   3.363   9.729
  289W        W  979   2.483   3.488   1.050
  290W        W  980   2.992   1.920   8.885
  291W        W  981   2.567   2.581   9.885
  292W        W  982   2.458   0.750   8.226
  293W        W  983   3.493   2.434   1.907
  294W        W  984   3.822   0.270   2.209
  295W        W  985   0.290   3.887   9.164
  296W        W  986   0.660   0.244   1.258
  297W        W  987   4.330   4.380   9.364
  298W        W  988   2.396   3.639   0.594
  299W        W  989   3.462   4.870   2.748
  300W        W  990   1.116   0.388   7.723
  301W        W  991   2.512   0.409   7.745
  302W        W  992   4.409   3.470   0.366
  303W        W  993   4.350   4.809   2.723
  304W        W  994   0.312   1.128   9.913
  305W        W  995   3.868   2.884   2.441
  306W        W  996   1.605   3.051   7.647
  307W        W  997   3.858   2.305   8.169
  308W        W  998   0.253   0.017   9.785
  309W        W  999   2.591   3.774   7.409
  310W        W 1000   0.303   2.524   7.666
  311W        W 1001   0.805   3.118   2.187
  312W        W 1002   3.510   0.705   1.679
  313W        W 1003   2.158   1.086   9.120
  314W        W 1004   3.459   4.793   2.222
  315W        W 1005   0.734   1.198   0.201
  316W        W 1006   1.968   0.681   8.882
  317W        W 1007   0.668   4.313   8.675
  318W        W 1008   4.796   4.748   2.480
  319W        W 1009   1.259   2.448   9.205
  320W        W 1010   2.351   2.078   0.406
  321W        W 1011   0.647   3.019   0.849
  322W        W 1012   0.266   1.755   8.724
  323W        W 1013   1.779   1.014   1.837
  324W        W 1014   1.245   3.075   0.336
  325W        W 1015   3.435   2.583   8.372
  326W        W 1016   1.588   4.357   9.263
  327W        W 1017   2.073   2.476   0.676
  328W        W 1018   0.259   4.443   2.473
  329W        W 1019   4.728   0.704   9.391
  330W        W 1020   3.397   2.520   7.881
  331W        W 1021   3.848   3.340   8.598
  332W        W 1022   2.106   4.258   0.420
  333W        W 1023   0.788   1.070   8.645
  334W        W 1024   1.985   1.940   0.115
  335W        W 1025   1.993   4.924   9.228
  336W        W 1026   4.283   0.728   9.145
  337W        W 1027   2.119   3.866   1.602
  338W        W 1028   0.311   2.500   0.853
  339W        W 1029   0.724   0.779   0.876
  340W        W 1030   0.597   3.386   7.951
  341W        W 1031   4.731   0.689   8.359
  342W        W 1032   2.859   1.521   8.064
  343W        W 1033   2.556   2.140   8.749
  344W        W 1034   3.051   3.425   0.900
  345W        W 1035   3.387   1.201   0.427
  346W        W 1036   3.772   3.288   7.329
  347W        W 1037   3.818   3.049   0.376
  348W        W 1038   3.847   4.303   9.505
  349W        W 1039   2.425   4.831   8.906
  350W        W 1040   4.219   3.897   1.783
  351W        W 1041   2.120   2.455   9.155
  352W        W 1042   4.350   2.521   2.414
  353W        W 1043   3.415   2.160   8.629
  354W        W 1044   3.883   1.605   9.930
  355W        W 1045   1.775   3.938   2.556
  356W        W 1046   4.434   2.593   9.352
  357W        W 1047   4.399   3.444   1.971
  358W        W 1048   4.885   1.117   8.090
  359W        W 1049   2.097   2.932   1.455
  360W        W 1050   2.086   1.685   1.930
  361W        W 1051   1.578   2.645   0.382
  362W        W 1052   0.161   0.689   9.138
  363W        W 1053   0.330   1.092   9.399
  364W        W 1054   0.291   0.719   1.687
  365W        W 1055   1.770   2.046   2.521
  366W        W 1056   2.063   3.376   0.306
  367W        W 1057   1.199   1.628   2.136
  368W        W 1058   4.741   3.275   8.847
  369W        W 1059   3.005   4.025   3.148
  370W        W 1060   4.405   0.608   1.720
  371W        W 1061   0.323   1.105   8.860
  372W        W 1062   3.817   1.178   1.194
  373W        W 1063   3.879   0.748   0.938
  374W        W 1064   3.430   1.676   9.223
  375W        W 1065   4.873   1.124   9.132
  376W        W 1066   4.371   0.471   1.249
  377W        W 1067   0.659   4.771   1.980
  378W        W 1068   2.462   1.064   1.254
  379W        W 1069   4.769   4.729   1.440
  380W        W 1070   3.539   3.415   0.818
  381W        W 1071   0.590   2.552   0.241
  382W        W 1072   0.211   4.465   7.830
  383W        W 1073   3.446   1.228   7.429
  384W        W 1074   2.666   0.223   8.702
  385W        W 1075   2.070   4.349   8.944
  386W        W 1076   4.660   1.115   1.673
  387W        W 1077   3.402   1.606   9.719
  388W        W 1078   2.555   0.561   1.196
  389W        W 1079   4.487   4.306   0.800
  390W        W 1080   4.379   2.628   0.878
  391W        W 1081   0.774   1.050   9.146
  392W        W 1082   0.779   0.717   1.883
  393W        W 1083   4.813   1.741   7.400
  394W        W 1084   0.227   4.504   9.840
  395W        W 1085   4.823   0.715   2.482
  396W        W 1086   4.748   2.957   1.379
  397W        W 1087   3.880   2.853   8.339
  398W        W 1088   1.633   1.608   2.751
  399W        W 1089   2.005   3.003   1.970
  400W        W 1090   2.994   2.849   8.870
  401W        W 1091   4.857   3.445   0.121
  402W        W 1092   1.092   0.760   7.327
  403W        W 1093   3.056   1.711   1.321
  404W        W 1094   1.050   4.748   9.694
  405W        W 1095   3.979   1.142   9.168
  406W        W 1096   1.146   2.967   7.943
  407W        W 1097   1.136   0.895   7.815
  408W        W 1098   4.213   4.337   0.375
  409W        W 1099   4.762   4.342   9.119
  410W        W 1100   3.103   0.199   8.931
  411W        W 1101   1.019   4.406   0.354
  412W        W 1102   4.394   1.593   7.656
  413W        W 1103   4.753   4.353   7.586
  414W        W 1104   4.870   0.268   9.626
  415W        W 1105   2.952   3.489   1.854
  416W        W 1106   3.920   2.491   1.623
  417W        W 1107   3.872   1.567   8.910
  418W        W 1108   2.990   1.463   9.122
  419W        W 1109   3.393   0.777   9.155
  420W        W 1110   4.772   4.324   8.616
  421W        W 1111   1.629   1.585   1.222
  422W        W 1112   3.913   2.389   2.668
  423W        W 1113   1.193   4.309   1.369
  424W        W 1114   1.585   0.228   7.887
  425W        W 1115   1.075   1.779   8.302
  426W        W 1116   0.644   4.794   9.976
  427W        W 1117   2.071   1.115   0.194
  428W        W 1118   3.062   0.722   1.944
  429W        W 1119   1.184   2.524   7.676
  430W        W 1120   2.537   1.674   8.563
  431W        W 1121   4.350   4.816   9.634
  432W        W 1122   3.396   2.602   9.361
  433W        W 1123   2.397   3.523   9.223
  434W        W 1124   1.064   4.753   1.168
  435W        W 1125   4.294   2.522   7.997
  436W        W 1126   2.971   2.973   7.367
  437W        W 1127   4.337   4.775   2.195
  438W        W 1128   4.407   4.865   9.137
  439W        W 1129   0.693   2.377   1.800
  440W        W 1130   4.002   4.899   7.253
  441W        W 1131   4.291   3.325   7.372
  442W        W 1132   2.409   1.981   1.333
  443W        W 1133   2.564   1.581   2.726
  444W        W 1134   3.536   1.196   9.434
  445W        W 1135   2.160   0.248   8.680
  446W        W 1136   4.260   2.187   1.108
  447W        W 1137   1.594   1.681   0.258
  448W        W 1138   0.705   2.582   9.739
  449W        W 1139   2.469   4.910   0.388
  450W        W 1140   0.144   0.333   2.479
  451W        W 1141   2.622   1.569   1.107
  452W        W 1142   0.339   1.051   8.343
  453W        W 1143   0.229   2.985   2.152
  454W        W 1144   4.270   4.338   9.852
  455W        W 1145   3.782   1.557   7.848
  456W        W 1146   1.154   3.307   2.849
  457W        W 1147   0.667   0.664   7.871
  458W        W 1148   4.957   1.996   9.898
  459W        W 1149   3.442   3.441   2.679
  460W        W 1150   3.928   3.507   0.130
  461W        W 1151   4.688   2.100   0.839
  462W        W 1152   3.384   1.182   0.948
  463W        W 1153   4.386   0.693   2.222
  464W        W 1154   3.341   2.061   1.090
  465W        W 1155   2.593   4.877   7.884
  466W        W 1156   4.388   2.619   0.363
  467W        W 1157   4.772   4.748   1.945
  468W        W 1158   2.564   0.723   0.721
  469W        W 1159   3.044   3.805   8.669
  470W        W 1160   3.381   0.760   9.688
  471W        W 1161   3.062   0.722   2.451
  472W        W 1162   3.063   1.030   8.835
  473W        W 1163   3.417   3.345   1.685
  474W        W 1164   3.000   2.938   7.874
  475W        W 1165   2.660   3.970   9.399
  476W        W 1166   4.290   3.508   8.376
  477W        W 1167   0.627   2.648   2.222
  478W        W 1168   2.559   4.711   0.836
  479W        W 1169   1.639   0.687   7.622
  480W        W 1170   4.332   4.886   1.635
  481W        W 1171   1.700   3.512   2.276
  482W        W 1172   2.604   0.711   2.177
  483W        W 1173   3.336   2.041   1.609
  484W        W 1174   4.693   2.097   7.952
  485W        W 1175   1.087   4.869   0.181
  486W        W 1176   1.943   3.824   0.610
  487W        W 1177   1.589   0.246   1.257
  488W        W 1178   3.871   2.536   7.713
  489W        W 1179   4.832   3.444   0.629
  490W        W 1180   3.965   2.504   9.142
  491W        W 1181   4.322   2.075   8.347
  492W        W 1182   3.880   1.599   9.421
  493W        W 1183   0.599   2.105   9.084
  494W        W 1184   0.641   3.141   1.327
  495W        W 1185   3.883   4.326   1.936
  496W        W 1186   2.542   3.363   2.121
  497W        W 1187   3.916   3.831   9.278
  498W        W 1188   4.860   2.623   9.642
  499W        W 1189   3.434   0.720   1.175
  500W        W 1190   1.979   3.373   7.835
  501W        W 1191   1.558   4.845   0.045
  502W        W 1192   2.968   3.040   2.441
  503W        W 1193   0.813   3.845   7.890
  504W        W 1194   1.203   4.852   7.685
  505W        W 1195   4.277   0.707   8.121
  506W        W 1196   2.186   3.837   0.175
  507W        W 1197   4.281   1.271   1.318
  508W        W 1198   4.878   1.120   9.643
  509W        W 1199   0.269   1.138   0.416
  510W        W 1200   4.931   0.245   0.134
  511W        W 1201   1.137   4.794   2.179
  512W        W 1202   3.096   0.236   9.802
  513W        W 1203   1.288   3.932   0.216
  514W        W 1204   2.998   3.373   9.969
  515W        W 1205   3.256   0.279   7.447
  516W        W 1206   3.840   0.730   8.903
  517W        W 1207   1.981   0.293   2.439
  518W        W 1208   0.288   0.731   2.200
  519W        W 1209   4.820   3.411   1.144
  520W        W 1210   2.886   0.095   0.653
  521W        W 1211   2.974   2.958   0.417
  522W        W 1212   2.492   0.895   0.273
  523W        W 1213   1.174   4.293   1.923
  524W        W 1214   3.854   4.274   8.462
  525W        W 1215   0.179   0.687   0.160
  526W        W 1216   4.662   4.361   0.163
  527W        W 1217   1.601   4.742   7.987
  528W        W 1218   3.489   0.646   2.733
  529W        W 1219   2.103   0.783   1.468
  530W        W 1220   4.820   1.575   0.917
  531W        W 1221   4.879   4.298   1.150
  532W        W 1222   3.058   3.815   9.700
  533W        W 1223   3.021   3.540   2.349
  534W        W 1224   4.684   3.034   9.868
  535W        W 1225   4.893   1.998   8.441
  536W        W 1226   1.099   4.353   7.911
  537W        W 1227   2.515   2.517   1.348
  538W        W 1228   1.690   0.746   0.632
  539W        W 1229   4.294   0.006   1.089
  540W        W 1230   2.129   0.712   7.833
  541W        W 1231   0.198   4.866   1.700
  542W        W 1232   1.241   3.335   2.351
  543W        W 1233   4.381   3.477   0.900
  544W        W 1234   0.333   4.384   0.930
  545W        W 1235   2.575   1.217   8.350
  546W        W 1236   2.127   1.561   0.419
  547W        W 1237   3.433   0.264   1.417
  548W        W 1238   2.941   3.413   2.831
  549W        W 1239   1.213   2.501   9.725
  550W        W 1240   1.656   2.071   7.714
  551W        W 1241   3.890   4.843   1.922
  552W        W 1242   2.938   2.508   7.614
  553W        W 1243   0.145   2.331   8.123
  554W        W 1244   3.482   1.153   7.944
  555W        W 1245   1.246   1.301   8.103
  556W        W 1246   0.257   1.565   2.729
  557W        W 1247   1.748   4.018   0.078
  558W        W 1248   3.027   0.598   0.662
  559W        W 1249   1.747   3.111   9.648
  560W        W 1250   3.506   1.535   2.271
  561W        W 1251   2.037   4.293   8.453
  562W        W 1252   1.961   1.152   2.608
  563W        W 1253   0.630   0.644   8.379
  564W        W 1254   4.950   1.975   2.822
  565W        W 1255   4.421   1.120   9.910
  566W        W 1256   2.039   3.399   8.851
  567W        W 1257   4.251   3.007   9.112
  568W        W 1258   2.129   1.955   8.572
  569W        W 1259   1.116   2.574   2.081
  570W        W 1260   0.175   2.017   0.921
  571W        W 1261   4.310   2.938   2.699
  572W        W 1262   4.856   1.581   2.448
  573W        W 1263   2.496   4.823   8.396
  574W        W 1264   0.596   4.803   9.460
  575W        W 1265   2.877   0.650   8.525
  576W        W 1266   3.400   1.098   2.503
  577W        W 1267   3.454   3.996   9.445
  578W        W 1268   4.342   2.050   2.622
  579W        W 1269   1.470   2.018   0.945
  580W        W 1270   3.400   1.994   2.120
  581W        W 1271   2.515   1.696   0.122
  582W        W 1272   1.695   3.099   0.137
  583W        W 1273   0.179   0.674   9.661
  584W        W 1274   2.359   1.614   8.092
  585W        W 1275   1.663   2.556   7.900
  586W        W 1276   3.979   3.544   7.701
  587W        W 1277   2.986   2.994   1.937
  588W        W 1278   0.155   0.309   1.958
  589W        W 1279   3.457   3.998   8.947
  590W        W 1280   2.439   2.895   2.232
  591W        W 1281   0.794   4.431   0.784
  592W        W 1282   0.198   2.445   2.385
  593W        W 1283   1.186   1.553   7.658
  594W        W 1284   4.252   3.041   0.123
  595W        W 1285   3.993   1.646   7.362
  596W        W 1286   1.721   2.198   8.684
  597W        W 1287   2.427   4.826   9.897
  598W        W 1288   4.017   0.276   9.713
  599W        W 1289   3.777   2.096   0.801
  600W        W 1290   3.966   1.123   8.136
  601W        W 1291   3.363   0.262   2.440
  602W        W 1292   2.487   0.753   9.801
  603W        W 1293   0.262   4.011   8.665
  604W        W 1294   4.378   3.956   9.094
  605W        W 1295   3.429   0.719   0.190
  606W        W 1296   4.787   2.062   1.842
  607W        W 1297   1.074   1.952   9.146
  608W        W 1298   1.254   3.883   8.694
  609W        W 1299   2.620   3.957   8.918
  610W        W 1300   3.517   3.922   7.942
  611W        W 1301   2.554   2.608   8.907
  612W        W 1302   2.994   3.995   2.642
  613W        W 1303   1.167   2.116   1.824
  614W        W 1304   2.861   0.171   9.363
  615W        W 1305   4.951   2.853   7.425
  616W        W 1306   3.413   2.950   0.652
  617W        W 1307   4.326   3.467   9.363
  618W        W 1308   0.854   2.113   9.586
  619W        W 1309   4.878   0.220   0.656
  620W        W 1310   1.096   3.325   0.931
  621W        W 1311   3.965   1.632   1.482
  622W        W 1312   4.855   1.220   7.573
  623W        W 1313   3.591   4.036   1.172
  624W        W 1314   4.370   2.588   9.857
  625W        W 1315   3.448   4.438   9.190
  626W        W 1316   4.283   0.712   8.632
  627W        W 1317   3.118   0.323   0.272
  628W        W 1318   3.013   4.797   1.029
  629W        W 1319   2.478   4.235   1.654
  630W        W 1320   3.584   0.316   8.926
  631W        W 1321   2.483   0.275   2.596
  632W        W 1322   4.429   1.545   2.703
  633W        W 1323   3.475   1.646   0.218
  634W        W 1324   2.124   0.761   2.301
  635W        W 1325   3.906   0.277   1.648
  636W        W 1326   4.799   3.788   2.488
  637W        W 1327   2.429   4.328   7.680
  638W        W 1328   0.280   3.260   8.338
  639W        W 1329   2.064   4.876   1.669
  640W        W 1330   2.167   3.423   7.367
  641W        W 1331   3.971   3.027   7.725
  642W        W 1332   4.321   3.839   2.287
  643W        W 1333   0.314   0.256   8.882
  644W        W 1334   1.116   1.189   0.600
  645W        W 1335   2.183   4.350   0.942
  646W        W 1336   0.554   3.436   9.263
  647W        W 1337   0.113   3.377   2.655
  648W        W 1338   2.495   2.091   8.198
  649W        W 1339   4.834   0.705   1.958
  650W        W 1340   1.685   3.847   1.877
  651W        W 1341   0.276   3.490   9.817
  652W        W 1342   2.910   0.309   2.196
  653W        W 1343   2.622   0.275   8.212
  654W        W 1344   3.945   3.297   2.769
  655W        W 1345   1.256   3.914   7.649
  656W        W 1346   2.973   4.735   8.176
  657W        W 1347   1.272   3.898   8.168
  658W        W 1348   2.550   4.270   2.662
  659W        W 1349   3.969   1.646   0.966
  660W        W 1350   4.644   2.068   0.327
  661W        W 1351   1.105   2.553   1.569
  662W        W 1352   2.392   2.166   0.888
  663W        W 1353   1.908   2.007   0.621
  664W        W 1354   2.074   3.854   1.094
  665W        W 1355   1.099   4.936   0.677
  666W        W 1356   1.676   0.731   1.128
  667W        W 1357   3.372   1.159   1.465
  668W        W 1358   0.744   2.157   8.187
  669W        W 1359   2.387   2.117   9.893
  670W        W 1360   1.112   4.794   8.182
  671W        W 1361   3.754   3.885   0.734
  672W        W 1362   3.548   0.167   0.401
  673W        W 1363   2.621   0.399   0.314
  674W        W 1364   1.807   0.160   0.394
  675W        W 1365   0.787   2.020   2.159
  676W        W 1366   1.112   0.267   1.060
  677W        W 1367   1.543   2.008   1.482
  678W        W 1368   1.225   2.986   8.444
  679W        W 1369   1.558   2.498   1.355
  680W        W 1370   4.312   4.853   8.103
  681W        W 1371   3.441   2.604   8.870
  682W        W 1372   2.527   1.418   7.274
  683W        W 1373   2.969   1.185   2.204
  684W        W 1374   2.936   4.287   8.431
  685W        W 1375   1.134   1.749   2.715
  686W        W 1376   2.198   3.977   9.227
  687W        W 1377   2.653   2.718   2.670
  688W        W 1378   3.046   1.061   9.397
  689W        W 1379   0.342   3.749   0.283
  690W        W 1380   3.829   3.834   2.093
  691W        W 1381   4.881   0.245   8.102
  692W        W 1382   0.233   4.944   7.609
  693W        W 1383   4.331   4.421   8.859
  694W        W 1384   4.795   3.435   8.367
  695W        W 1385   1.711   1.724   8.851
  696W        W 1386   0.102   3.872   0.737
  697W        W 1387   2.118   2.467   9.660
  698W        W 1388   1.084   0.648   8.870
  699W        W 1389   2.085   1.516   9.895
  700W        W 1390   4.912   2.700   9.134
  701W        W 1391   0.637   3.836   9.816
  702W        W 1392   2.552   3.027   1.222
  703W        W 1393   2.997   2.477   0.659
  704W        W 1394   0.823   2.823   8.833
  705W        W 1395   2.117   2.552   1.802
  706W        W 1396   0.646   1.610   9.884
  707W        W 1397   2.107   4.793   7.787
  708W        W 1398   2.160   1.070   8.599
  709W        W 1399   0.294   3.269   0.305
  710W        W 1400   3.676   0.297   7.163
  711W        W 1401   0.712   1.738   0.909
  712W        W 1402   4.331   4.332   2.444
  713W        W 1403   3.830   2.525   9.632
  714W        W 1404   3.538   4.918   9.205
  715W        W 1405   0.214   4.852   8.611
  716W        W 1406   4.720   0.210   2.224
  717W        W 1407   1.535   0.680   8.108
  718W        W 1408   2.111   0.292   1.334
  719W        W 1409   1.696   0.585   2.111
  720W        W 1410   2.558   1.944   2.376
  721W        W 1411   1.332   2.924   9.451
  722W        W 1412   1.240   1.679   0.621
  723W        W 1413   1.529   4.777   1.448
  724W        W 1414   0.743   2.606   7.936
  725W        W 1415   3.557   0.235   8.390
  726W        W 1416   3.065   3.911   7.607
  727W        W 1417   1.531   0.688   8.628
  728W        W 1418   2.533   4.755   2.297
  729W        W 1419   0.109   4.159   0.177
  730W        W 1420   0.681   3.491   7.410
  731W        W 1421   0.199   4.879   2.202
  732W        W 1422   1.205   4.322   9.910
  733W        W 1423   4.784   0.185   1.169
  734W        W 1424   3.814   2.985   9.874
  735W        W 1425   4.427   0.291   9.406
  736W        W 1426   2.563   1.722   9.092
  737W        W 1427   4.383   3.966   8.585
  738W        W 1428   0.727   0.250   9.698
  739W        W 1429   2.867   2.171   9.792
  740W        W 1430   2.494   0.174   1.640
  741W        W 1431   4.863   4.285   1.676
  742W        W 1432   1.774   4.496   0.693
  743W        W 1433   3.420   0.306   0.857
  744W        W 1434   2.968   2.889   9.869
  745W        W 1435   1.048   0.293   2.045
  746W        W 1436   4.876   1.111   8.608
  747W        W 1437   1.033   4.755   9.197
  748W        W 1438   2.554   4.282   0.620
  749W        W 1439   4.861   0.245   8.625
  750W        W 1440   0.297   1.010   7.764
  751W        W 1441   4.714   3.916   0.431
  752W        W 1442   1.282   4.459   0.797
  753W        W 1443   4.360   1.048   0.427
  754W        W 1444   1.712   1.570   0.733
  755W        W 1445   2.839   4.346   1.334
  756W        W 1446   1.540   4.871   0.932
  757W        W 1447   1.643   1.977   1.990
  758W        W 1448   1.032   3.413   1.456
  759W        W 1449   2.501   4.380   8.666
  760W        W 1450   2.574   1.265   9.389
  761W        W 1451   1.934   2.011   1.124
  762W        W 1452   1.159   0.207   1.559
  763W        W 1453   0.746   3.007   0.354
  764W        W 1454   4.291   2.083   1.600
  765W        W 1455   3.862   1.988   2.342
  766W        W 1456   3.015   0.169   7.879
  767W        W 1457   0.334   1.880   8.166
  768W        W 1458   4.792   2.070   2.348
  769W        W 1459   4.429   3.440   7.904
  770W        W 1460   4.303   3.062   1.153
  771W        W 1461   4.726   3.847   1.930
  772W        W 1462   4.324   3.903   0.114
  773W        W 1463   3.825   0.750   7.374
  774W        W 1464   4.463   0.195   0.399
  775W        W 1465   3.076   0.174   8.406
  776W        W 1466   0.120   1.481   8.345
  777W        W 1467   0.706   1.939   1.605
  778W        W 1468   3.492   3.392   2.177
  779W        W 1469   3.989   0.226   8.644
  780W        W 1470   3.411   4.890   8.724
  781W        W 1471   2.026   4.853   2.183
  782W        W 1472   3.264   2.128   7.597
  783W        W 1473   0.718   4.310   2.178
  784W        W 1474   0.186   3.964   2.198
  785W        W 1475   0.639   4.276   8.140
  786W        W 1476   3.317   1.517   8.271
  787W        W 1477   4.743   2.080   1.339
  788W        W 1478   3.363   0.342   9.395
  789W        W 1479   2.112   2.141   2.151
  790W        W 1480   1.033   3.521   1.945
  791W        W 1481   4.791   4.801   9.917
  792W        W 1482   1.208   3.782   1.135
  793W        W 1483   4.907   3.829   1.436
  794W        W 1484   0.512   4.397   0.335
  795W        W 1485   1.198   4.351   2.426
  796W        W 1486   3.517   4.883   1.096
  797W        W 1487   1.105   1.638   9.679
  798W        W 1488   1.041   3.429   9.160
  799W        W 1489   3.914   2.551   1.112
  800W        W 1490   0.339   0.265   0.422
  801W        W 1491   4.317   3.519   8.874
  802W        W 1492   2.554   2.996   0.169
  803W        W 1493   4.724   1.114   1.159
  804W        W 1494   0.115   3.055   9.616
  805W        W 1495   1.106   0.667   9.388
  806W        W 1496   3.478   4.327   0.792
  807W        W 1497   2.080   1.663   7.646
  808W        W 1498   3.003   2.991   1.436
  809W        W 1499   0.626   2.188   1.117
  810W        W 1500   2.474   2.494   7.378
  811W        W 1501   2.634   0.733   2.704
  812W        W 1502   3.855   4.793   9.645
  813W        W 1503   4.754   1.541   9.895
  814W        W 1504   1.228   0.722   0.865
  815W        W 1505   2.169   1.609   0.923
  816W        W 1506   3.353   3.398   0.370
  817W        W 1507   4.248   3.892   0.627
  818W        W 1508   3.989   4.023   7.726
  819W        W 1509   2.516   3.211   2.615
  820W        W 1510   3.887   3.313   8.120
  821W        W 1511   1.333   0.300   0.216
  822W        W 1512   4.813   0.337   7.102
  823W        W 1513   0.614   0.667   9.406
  824W        W 1514   0.251   3.261   7.445
  825W        W 1515   0.684   2.153   7.650
  826W        W 1516   3.392   4.387   9.752
  827W        W 1517   0.259   2.987   7.877
  828W        W 1518   2.561   4.413   9.157
  829W        W 1519   2.486   0.767   9.307
  830W        W 1520   2.926   2.394   9.193
  831W        W 1521   1.555   4.033   0.816
  832W        W 1522   4.739   0.684   9.899
  833W        W 1523   1.545   0.652   9.138
  834W        W 1524   0.631   1.514   8.390
  835W        W 1525   2.505   2.947   7.595
  836W        W 1526   1.132   3.859   9.720
  837W        W 1527   4.411   1.613   2.206
  838W        W 1528   4.769   2.947   2.431
  839W        W 1529   0.774   4.694   2.520
  840W        W 1530   0.763   1.243   7.694
  841W        W 1531   4.768   3.328   7.559
  842W        W 1532   0.137   2.092   0.359
  843W        W 1533   2.049   2.444   0.168
  844W        W 1534   2.443   3.445   8.263
  845W        W 1535   1.490   3.472   7.919
  846W        W 1536   4.354   1.337   0.832
  847W        W 1537   2.087   3.859   9.687
  848W        W 1538   0.728   3.796   1.546
  849W        W 1539   2.979   1.938   8.392
  850W        W 1540   1.617   1.660   9.763
  851W        W 1541   3.005   0.775   1.445
  852W        W 1542   0.577   1.146   2.205
  853W        W 1543   3.325   4.790   0.639
  854W        W 1544   1.094   2.586   0.233
  855W        W 1545   2.078   4.454   9.432
  856W        W 1546   3.403   2.901   2.677
  857W        W 1547   2.588   1.678   0.614
  858W        W 1548   2.508   4.264   2.147
  859W        W 1549   0.765   0.208   8.621
  860W        W 1550   1.521   2.957   2.138
  861W        W 1551   3.404   3.059   8.602
  862W        W 1552   0.319   0.276   9.380
  863W        W 1553   2.136   2.905   8.897
  864W        W 1554   2.509   3.477   0.111
  865W        W 1555   3.889   1.224   7.090
  866W        W 1556   2.393   2.267   2.766
  867W        W 1557   2.978   2.936   0.924
  868W        W 1558   2.412   0.210   2.120
  869W        W 1559   2.918   0.983   0.975
  870W        W 1560   4.825   0.243   7.596
  871W        W 1561   3.068   1.652   2.819
  872W        W 1562   1.477   1.118   2.790
  873W        W 1563   1.285   1.066   9.077
  874W        W 1564   3.820   2.014   9.123
  875W        W 1565   4.434   2.587   8.836
  876W        W 1566   2.957   4.403   1.827
  877W        W 1567   1.550   0.202   2.757
  878W        W 1568   3.382   4.298   2.110
  879W        W 1569   3.968   4.680   9.194
  880W        W 1570   0.558   3.057   9.855
  881W        W 1571   2.457   0.702   8.793
  882W        W 1572   4.829   3.909   9.351
  883W        W 1573   1.264   0.205   8.703
  884W        W 1574   1.701   0.276   9.424
  885W        W 1575   2.510   1.255   7.774
  886W        W 1576   4.730   0.210   1.686
  887W        W 1577   3.927   1.653   0.450
  888W        W 1578   3.450   2.865   1.662
  889W        W 1579   0.293   4.426   1.428
  890W        W 1580   3.311   4.459   1.244
  891W        W 1581   3.804   2.075   1.314
  892W        W 1582   3.970   0.732   1.419
  893W        W 1583   0.189   2.905   0.612
  894W        W 1584   0.225   2.555   1.883
  895W        W 1585   1.034   3.416   8.670
  896W        W 1586   1.596   3.549   0.370
  897W        W 1587   4.392   3.946   8.072
  898W        W 1588   3.000   4.742   7.556
  899W        W 1589   1.701   2.582   9.412
  900W        W 1590   0.263   0.270   0.948
  901W        W 1591   0.123   1.141   1.946
  902W        W 1592   1.519   4.404   0.292
  903W        W 1593   3.849   1.209   0.690
  904W        W 1594   1.691   0.089   3.233
  905W        W 1595   0.159   2.844   0.101
  906W        W 1596   4.792   1.569   0.412
  907W        W 1597   2.115   1.960   9.087
  908W        W 1598   4.313   2.101   2.105
  909W        W 1599   1.417   3.463   9.488
  910W        W 1600   3.069   2.539   1.673
  911W        W 1601   4.484   2.095   9.806
  912W        W 1602   4.718   2.891   8.533
  913W        W 1603   0.751   1.549   1.924
  914W        W 1604   4.419   1.133   8.378
  915W        W 1605   3.904   4.827   2.478
  916W        W 1606   3.500   4.819   7.406
  917W        W 1607   3.871   3.997   0.275
  918W        W 1608   3.008   1.701   2.315
  919W        W 1609   2.151   1.099   9.638
  920W        W 1610   0.620   4.847   0.966
  921W        W 1611   3.374   4.339   7.650
  922W        W 1612   3.908   4.794   1.384
  923W        W 1613   3.998   3.746   7.230
  924W        W 1614   3.357   2.420   2.930
  925W        W 1615   0.197   3.998   9.684
  926W        W 1616   2.004   0.260   7.608
  927W        W 1617   1.589   2.471   1.863
  928W        W 1618   2.986   1.566   0.303
  929W        W 1619   2.186   1.226   1.658
  930W        W 1620   2.557   3.890   1.311
  931W        W 1621   2.931   4.822   1.511
  932W        W 1622   1.942   4.786   8.759
  933W        W 1623   1.976   1.985   9.591
  934W        W 1624   4.195   2.022   7.863
  935W        W 1625   1.069   0.137   2.565
  936W        W 1626   1.501   0.148   2.254
  937W        W 1627   1.464   3.465   8.425
  938W        W 1628   1.189   1.654   1.612
  939W        W 1629   2.899   3.493   1.360
  940W        W 1630   3.547   1.170   9.941
  941W        W 1631   2.126   0.236   8.109
  942W        W 1632   1.106   4.301   9.433
  943W        W 1633   3.463   2.101   9.598
  944W        W 1634   3.858   0.732   9.930
  945W        W 1635   2.544   4.411   9.645
  946W        W 1636   3.971   1.520   2.503
  947W        W 1637   1.744   3.930   9.017
  948W        W 1638   1.061   4.748   8.691
  949W        W 1639   3.965   4.273   1.438
  950W        W 1640   4.407   1.577   1.701
  951W        W 1641   4.414   3.805   7.530
  952W        W 1642   1.684   0.681   2.613
  953W        W 1643   4.733   4.743   0.927
  954W        W 1644   0.165   3.581   1.850
  955W        W 1645   4.397   3.913   9.591
  956W        W 1646   0.653   2.859   1.747
  957W        W 1647   1.742   3.553   9.890
  958W        W 1648   2.130   4.311   9.915
  959W        W 1649   2.064   4.414   1.915
  960W        W 1650   0.194   1.537   9.641
  961W        W 1651   3.023   1.500   0.813
  962W        W 1652   4.849   1.111   0.158
  963W        W 1653   1.156   2.864   2.518
  964W        W 1654   4.788   0.641   0.940
  965W        W 1655   1.675   3.080   0.637
  966W        W 1656   4.461   3.382   2.495
  967W        W 1657   3.016   2.558   2.201
  968W        W 1658   2.528   4.703   1.807
  969W        W 1659   1.287   3.867   2.218
  970W        W 1660   4.949   4.359   0.611
  971W        W 1661   0.302   1.569   1.676
  972W        W 1662   1.606   3.952   9.578
  973W        W 1663   0.669   4.304   7.617
  974W        W 1664   0.646   2.589   8.433
  975W        W 1665   1.162   2.490   8.219
  976W        W 1666   0.415   3.444   2.265
  977W        W 1667   4.434   1.181   9.401
  978W        W 1668   4.774   3.892   9.917
  979W        W 1669   1.933   3.083   2.474
  980W        W 1670   1.951   3.427   8.342
  981W        W 1671   0.694   3.592   1.085
  982W        W 1672   2.159   3.865   7.674
  983W        W 1673   1.222   0.679   1.378
  984W        W 1674   2.102   0.472   1.847
  985W        W 1675   0.644   1.271   0.720
  986W        W 1676   3.873   4.705   8.724
  987W        W 1677   3.026   4.736   9.169
  988W        W 1678   3.457   3.007   8.092
  989W        W 1679   0.721   2.664   1.233
  990W        W 1680   4.359   2.019   7.364
  991W        W 1681   4.946   2.434   8.717
  992W        W 1682   3.012   0.349   1.130
  993W        W 1683   2.850   2.133   1.478
  994W        W 1684   1.989   1.509   8.404
  995W        W 1685   4.663   3.870   0.970
  996W        W 1686   1.517   2.099   8.236
  997W        W 1687   0.711   0.195   8.101
  998W        W 1688   1.120   4.309   8.938
  999W        W 1689   0.775   2.530   9.236
 1000W        W 1690   4.797   3.489   9.609
 1001W        W 1691   0.740   3.056   8.314
 1002W        W 1692   2.072   1.637   1.428
 1003W        W 1693   1.653   3.890   1.350
 1004W        W 1694   4.378   1.771   0.637
 1005W        W 1695   3.828   1.118   2.229
 1006W        W 1696   4.775   4.795   8.360
 1007W        W 1697   0.657   3.830   2.045
 1008W        W 1698   2.548   1.536   2.109
 1009W        W 1699   1.048   1.094   1.149
 1010W        W 1700   1.541   2.511   2.379
 1011W        W 1701   1.654   0.155   1.775
 1012W        W 1702   3.528   0.276   7.878
 1013W        W 1703   2.893   1.256   1.394
 1014W        W 1704   2.037   2.602   2.335
 1015W        W 1705   0.559   2.148   0.589
 1016W        W 1706   3.519   1.217   8.931
 1017W        W 1707   3.433   2.214   7.130
 1018W        W 1708   4.275   2.095   9.345
 1019W        W 1709   4.224   2.230   0.614
 1020W        W 1710   2.987   1.095   7.766
 1021W        W 1711   1.104   4.321   8.422
 1022W        W 1712   4.796   3.051   8.047
 1023W        W 1713   4.823   3.887   7.813
 1024W        W 1714   4.388   1.182   7.351
 1025W        W 1715   3.978   3.456   0.622
 1026W        W 1716   4.284   0.718   9.644
 1027W        W 1717   1.661   0.605   1.601
 1028W        W 1718   2.080   2.866   7.887
 1029W        W 1719   0.260   4.436   1.960
 1030W        W 1720   4.204   0.409   0.759
 1031W        W 1721   0.744   4.316   1.623
 1032W        W 1722   3.861   1.967   8.552
 1033W        W 1723   4.342   3.538   1.421
 1034W        W 1724   2.068   3.488   1.920
 1035W        W 1725   0.183   0.649   8.088
 1036W        W 1726   2.144   0.756   0.965
 1037W        W 1727   1.646   1.596   7.937
 1038W        W 1728   3.986   0.203   9.195
 1039W        W 1729   1.682   2.636   8.920
 1040W        W 1730   2.949   3.942   1.635
 1041W        W 1731   3.990   3.374   2.265
 1042W        W 1732   1.650   2.609   8.408
 1043W        W 1733   4.347   2.567   1.882
 1044W        W 1734   0.201   4.415   8.353
 1045W        W 1735   2.521   2.544   0.390
 1046W        W 1736   1.232   3.871   1.641
 1047W        W 1737   4.178   2.003   0.175
 1048W        W 1738   2.132   2.898   9.921
 1049W        W 1739   3.953   0.311   7.602
 1050W        W 1740   1.640   1.623   7.390
 1051W        W 1741   2.590   1.216   8.873
 1052W        W 1742   0.763   1.511   1.390
 1053W        W 1743   3.962   0.715   1.933
 1054W        W 1744   3.823   0.673   9.416
 1055W        W 1745   2.245   0.148   7.165
 1056W        W 1746   3.517   1.585   1.742
 1057W        W 1747   4.842   1.566   1.425
 1058W        W 1748   3.435   4.770   1.658
 1059W        W 1749   0.172   1.156   0.914
 1060W        W 1750   3.984   4.349   0.905
 1061W        W 1751   3.907   3.798   2.607
 1062W        W 1752   2.014   0.693   9.921
 1063W        W 1753   4.271   0.229   1.997
 1064W        W 1754   0.596   3.356   1.778
 1065W        W 1755   4.319   1.625   9.660
 1066W        W 1756   2.891   4.903   0.136
 1067W        W 1757   1.061   3.400   7.695
 1068W        W 1758   2.544   2.633   9.403
 1069W        W 1759   4.268   1.633   8.632
 1070W        W 1760   0.160   0.677   8.625
 1071W        W 1761   0.228   2.871   2.664
 1072W        W 1762   0.815   2.574   0.692
 1073W        W 1763   2.477   4.353   8.172
 1074W        W 1764   0.358   4.935   2.668
 1075W        W 1765   0.836   3.609   2.522
 1076W        W 1766   1.609   4.297   1.661
 1077W        W 1767   3.349   4.393   2.596
 1078W        W 1768   1.613   2.613   7.406
 1079W        W 1769   0.253   2.403   9.906
 1080W        W 1770   1.895   3.539   9.330
 1081W        W 1771   3.925   2.457   2.150
 1082W        W 1772   3.431   3.032   1.166
 1083W        W 1773   3.470   2.433   2.419
 1084W        W 1774   2.842   2.055   0.357
 1085W        W 1775   1.152   2.067   7.897
 1086W        W 1776   1.149   2.465   1.057
 1087W        W 1777   0.125   1.139   1.441
 1088W        W 1778   4.291   3.050   0.627
 1089W        W 1779   4.423   1.141   7.874
 1090W        W 1780   0.390   2.938   9.220
 1091W        W 1781   4.248   3.016   9.612
 1092W        W 1782   0.376   2.202   8.562
 1093W        W 1783   1.673   3.228   7.149
 1094W        W 1784   2.160   3.540   2.467
 1095W        W 1785   3.448   2.521   0.357
 1096W        W 1786   0.618   0.238   1.759
 1097W        W 1787   4.429   1.168   8.888
 1098W        W 1788   4.768   3.384   1.642
 1099W        W 1789   1.961   4.857   9.734
 1100W        W 1790   3.452   3.519   8.840
 1101W        W 1791   2.931   0.736   0.068
 1102W        W 1792   2.921   1.166   2.717
 1103W        W 1793   2.036   2.486   1.208
 1104W        W 1794   3.942   2.314   7.257
 1105W        W 1795   1.551   0.710   9.649
 1106W        W 1796   3.373   4.721   0.144
 1107W        W 1797   0.850   3.000   9.382
 1108W        W 1798   3.836   0.673   8.401
 1109W        W 1799   1.500   1.120   1.424
 1110W        W 1800   3.982   0.263   8.118
 1111W        W 1801   0.770   1.711   7.918
 1112W        W 1802   0.640   0.228   7.606
 1113W        W 1803   1.510   3.487   8.936
 1114W        W 1804   2.977   0.309   1.657
 1115W        W 1805   2.460   4.860   9.406
 1116W        W 1806   2.104   3.950   2.150
 1117W        W 1807   4.785   1.549   8.839
 1118W        W 1808   3.769   3.804   1.565
 1119W        W 1809   0.256   3.782   7.364
 1120W        W 1810   4.734   0.693   7.851
 1121W        W 1811   1.729   3.084   9.156
 1122W        W 1812   4.417   1.727   1.185
 1123W        W 1813   2.952   2.209   2.587
 1124W        W 1814   1.269   3.014   8.956
 1125W        W 1815   1.728   3.901   7.963
 1126W        W 1816   1.138   4.399   7.386
 1127W        W 1817   3.491   3.437   9.890
 1128W        W 1818   1.270   2.089   2.342
 1129W        W 1819   1.264   0.210   9.207
 1130W        W 1820   2.987   3.344   8.910
 1131W        W 1821   2.975   2.500   0.167
 1132W        W 1822   1.457   2.151   0.442
 1133W        W 1823   1.561   0.719   7.112
 1134W        W 1824   0.977   4.360   2.883
 1135W        W 1825   2.670   3.934   0.320
 1136W        W 1826   0.811   4.086   1.146
 1137W        W 1827   3.985   1.156   9.670
 1138W        W 1828   3.910   3.410   9.617
 1139W        W 1829   4.769   1.655   9.378
 1140W        W 1830   0.136   1.990   9.158
 1141W        W 1831   4.101   3.887   1.117
 1142W        W 1832   4.357   2.606   1.380
 1143W        W 1833   0.274   3.476   1.374
 1144W        W 1834   1.088   4.723   1.683
 1145W        W 1835   3.863   3.017   0.896
 1146W        W 1836   3.921   3.818   8.224
 1147W        W 1837   3.962   1.159   7.621
 1148W        W 1838   4.347   4.859   8.624
 1149W        W 1839   2.519   2.957   1.736
 1150W        W 1840   3.561   1.481   2.806
 1151W        W 1841   2.498   2.146   9.381
 1152W        W 1842   2.561   0.668   1.679
 1153W        W 1843   0.313   4.018   1.698
 1154W        W 1844   2.087   4.391   2.443
 1155W        W 1845   1.255   0.613   2.378
 1156W        W 1846   4.814   2.487   0.122
 1157W        W 1847   3.003   4.914   2.526
 1158W        W 1848   0.724   1.591   2.450
 1159W        W 1849   2.998   1.580   7.417
 1160W        W 1850   3.376   4.871   9.662
 1161W        W 1851   1.974   4.798   1.183
 1162W        W 1852   4.379   0.706   2.760
 1163W        W 1853   1.160   1.569   1.090
 1164W        W 1854   1.694   1.104   8.328
 1165W        W 1855   1.980   1.942   8.094
 1166W        W 1856   2.003   4.324   7.951
 1167W        W 1857   3.345   2.539   9.843
 1168W        W 1858   3.841   4.420   7.444
 1169W        W 1859   2.786   3.848   0.805
 1170W        W 1860   1.113   3.543   0.474
 1171W        W 1861   2.577   1.753   7.662
 1172W        W 1862   4.732   3.150   2.917
 1173W        W 1863   0.192   4.384   9.369
 1174W        W 1864   2.194   2.183   7.691
 1175W        W 1865   3.214   4.355   7.161
 1176W        W 1866   2.465   4.752   7.415
 1177W        W 1867   3.959   2.470   8.635
 1178W        W 1868   0.813   0.299   0.193
 1179W        W 1869   2.493   1.141   2.427
 1180W        W 1870   4.392   4.846   7.579
 1181W        W 1871   0.711   0.298   0.747
 1182W        W 1872   4.325   2.495   2.966
 1183W        W 1873   3.862   0.295   1.139
 1184W        W 1874   3.479   2.470   1.370
 1185W        W 1875   0.191   4.817   0.705
 1186W        W 1876   3.780   4.571   0.486
 1187W        W 1877   4.327   1.628   9.134
 1188W        W 1878   4.774   2.519   2.135
 1189W        W 1879   4.830   2.529   1.112
 1190W        W 1880   1.054   2.973   9.878
 1191W        W 1881   3.811   4.292   2.440
 1192W        W 1882   4.370   0.295   7.327
 1193W        W 1883   4.384   4.398   1.814
 1194W        W 1884   1.672   4.426   9.772
 1195W        W 1885   1.690   1.544   2.249
 1196W        W 1886   1.509   1.594   8.424
 1197W        W 1887   4.468   0.227   9.911
 1198W        W 1888   0.589   3.248   8.786
 1199W        W 1889   4.746   2.989   0.870
 1200W        W 1890   1.691   0.619   3.121
 1201W        W 1891   2.430   1.128   2.948
 1202W        W 1892   3.894   3.430   1.191
 1203W        W 1893   2.571   3.812   2.400
 1204W        W 1894   0.686   3.750   8.859
 1205W        W 1895   4.869   3.381   2.186
 1206W        W 1896   3.423   1.679   8.725
 1207W        W 1897   3.478   3.947   8.454
 1208W        W 1898   4.681   3.092   9.338
 1209W        W 1899   4.342   1.530   0.185
 1210W        W 1900   1.651   3.041   8.145
 1211W        W 1901   2.131   0.586   0.451
 1212W        W 1902   2.560   4.257   7.207
 1213W        W 1903   0.364   2.011   9.617
 1214W        W 1904   3.429   3.480   8.303
 1215W        W 1905   3.401   1.132   1.961
 1216W        W 1906   2.389   1.981   7.268
 1217W        W 1907   3.924   0.770   0.443
 1218W        W 1908   4.268   3.071   8.630
 1219W        W 1909   4.816   2.590   7.847
 1220W        W 1910   2.992   2.871   8.371
 1221W        W 1911   1.120   0.740   0.384
 1222W        W 1912   0.256   3.377   0.877
 1223W        W 1913   1.720   3.891   8.492
 1224W        W 1914   0.294   1.574   1.165
 1225W        W 1915   4.724   0.699   8.880
 1226W        W 1916   4.279   0.727   7.608
 1227W        W 1917   0.368   1.986   2.477
 1228W        W 1918   0.330   3.950   1.189
 1229W        W 1919   1.507   3.381   1.834
 1230W        W 1920   1.728   1.198   8.846
 1231W        W 1921   0.751   3.453   0.117
 1232W        W 1922   3.805   0.750   6.867
 1233W        W 1923   2.911   2.004   7.905
 1234W        W 1924   1.154   1.588   8.786
 1235W        W 1925   3.120   3.818   0.215
 1236W        W 1926   3.896   2.603   0.613
 1237W        W 1927   4.700   2.031   8.928
 1238W        W 1928   4.698   1.146   2.224
 1239W        W 1929   1.448   0.310   0.702
 1240W        W 1930   0.725   0.711   1.388
 1241W        W 1931   1.255   2.063   8.689
 1242W        W 1932   3.511   0.688   2.194
 1243W        W 1933   4.802   3.827   8.848
 1244W        W 1934   2.617   0.272   9.811
 1245W        W 1935   3.425   3.880   2.399
 1246W        W 1936   4.202   3.076   3.179
 1247W        W 1937   4.807   4.780   9.422
 1248W        W 1938   2.534   3.805   1.893
 1249W        W 1939   4.741   2.997   0.365
 1250W        W 1940   1.508   4.820   9.504
 1251W        W 1941   0.703   4.335   9.751
 1252W        W 1942   2.857   3.461   0.454
 1253W        W 1943   1.107   0.762   8.348
 1254W        W 1944   2.173   3.868   8.712
 1255W        W 1945   1.296   0.320   6.898
 1256W        W 1946   1.959   1.193   1.190
 1257W        W 1947   2.023   4.714   0.221
 1258W        W 1948   2.407   0.256   0.766
 1259W        W 1949   1.079   2.030   1.279
 1260W        W 1950   2.134   2.463   8.652
 1261W        W 1951   2.914   0.646   8.016
 1262W        W 1952   2.574   4.825   2.785
 1263W        W 1953   2.020   1.526   9.368
 1264W        W 1954   0.217   1.601   0.144
 1265W        W 1955   2.990   3.455   7.854
 1266W        W 1956   4.313   0.653   0.140
 1267W        W 1957   0.672   1.685   0.400
 1268W        W 1958   3.910   3.810   8.747
 1269W        W 1959   3.883   4.247   8.983
 1270W        W 1960   4.848   1.619   7.894
 1271W        W 1961   4.320   4.414   8.350
 1272W        W 1962   3.402   3.572   1.258
 1273W        W 1963   3.017   1.533   1.820
 1274W        W 1964   3.365   0.743   7.170
 1275W        W 1965   0.142   1.136   2.490
 1276W        W 1966   4.759   2.959   1.907
 1277W        W 1967   1.221   2.555   8.716
 1278W        W 1968   3.823   2.032   1.825
 1279W        W 1969   1.160   2.467   7.163
 1280W        W 1970   3.987   1.138   8.651
 1281W        W 1971   1.356   2.048   9.554
 1282W        W 1972   2.010   2.104   1.628
 1283W        W 1973   1.116   2.095   0.050
 1284W        W 1974   0.621   0.724   9.902
 1285W        W 1975   2.612   3.904   8.420
 1286W        W 1976   2.613   2.472   1.828
 1287W        W 1977   1.916   0.320   0.870
 1288W        W 1978   1.666   2.675   9.890
 1289W        W 1979   3.940   0.688   2.476
 1290W        W 1980   3.266   3.857   0.701
 1291W        W 1981   2.103   1.236   2.141
 1292W        W 1982   4.429   0.282   8.369
 1293W        W 1983   3.906   4.842   7.763
 1294W        W 1984   3.401   4.413   8.652
 1295W        W 1985   4.743   0.766   7.354
 1296W        W 1986   1.074   3.999   0.691
 1297W        W 1987   2.526   2.417   2.300
 1298W        W 1988   1.648   2.124   9.169
 1299W        W 1989   1.110   0.662   9.893
 1300W        W 1990   0.782   3.894   9.340
 1301W        W 1991   3.385   0.675   8.167
 1302W        W 1992   2.620   1.123   1.856
 1303W        W 1993   1.260   3.439   9.984
 1304W        W 1994   2.569   2.645   0.871
 1305W        W 1995   0.770   0.238   9.148
 1306W        W 1996   1.584   4.700   1.957
 1307W        W 1997   2.551   1.250   9.917
 1308W        W 1998   0.558   1.127   1.193
 1309W        W 1999   1.593   1.195   0.397
 1310W        W 2000   3.792   4.806   8.256
 1311W        W 2001   3.385   2.966   0.126
 1312W        W 2002   2.036   1.147   7.579
 1313W        W 2003   1.709   1.119   9.358
 1314W        W 2004   2.447   3.427   1.571
 1315W        W 2005   0.659   4.367   9.186
 1316W        W 2006   2.470   0.901   7.410
 1317W        W 2007   2.982   2.403   8.654
 1318W        W 2008   2.484   3.423   7.768
 1319W        W 2009   1.265   3.547   7.264
 1320W        W 2010   0.568   1.136   1.693
 1321W        W 2011   2.897   4.753   9.665
 1322W        W 2012   4.205   1.587   8.123
 1323W        W 2013   2.568   3.063   9.648
 1324W        W 2014   2.544   2.982   8.100
 1325W        W 2015   3.940   3.380   1.744
 1326W        W 2016   3.846   4.893   0.115
 1327W        W 2017   3.442   2.009   8.152
 1328W        W 2018   0.203   1.500   9.144
 1329W        W 2019   2.487   1.212   0.763
 1330W        W 2020   3.056   1.195   9.912
 1331W        W 2021   0.624   1.671   9.379
 1332W        W 2022   3.467   4.217   1.634
 1333W        W 2023   2.438   0.300   9.133
 1334W        W 2024   1.693   0.242   8.395
 1335W        W 2025   1.250   0.214   9.721
 1336W        W 2026   3.950   3.893   9.779
 1337W        W 2027   3.425   2.883   2.169
 1338W        W 2028   3.808   4.406   0.008
 1339W        W 2029   0.622   0.725   0.396
 1340W        W 2030   1.216   1.125   0.073
 1341W        W 2031   0.650   4.741   8.384
 1342W        W 2032   2.980   4.490   0.405
 1343W        W 2033   4.321   3.044   1.662
 1344W        W 2034   1.531   1.176   7.683
 1345W        W 2035   3.555   3.854   7.448
 1346W        W 2036   2.899   0.653   7.503
 1347W        W 2037   1.647   4.256   2.182
 1348W        W 2038   4.468   2.912   7.649
 1349W        W 2039   1.216   0.678   2.888
 1350W        W 2040   4.850   1.566   1.936
 1351W        W 2041   1.594   4.699   2.483
 1352W        W 2042   1.658   1.511   1.731
 1353W        W 2043   3.506   1.750   7.375
 1354W        W 2044   0.832   3.875   8.405
 1355W        W 2045   2.984   1.912   9.384
 1356W        W 2046   2.631   3.552   9.652
 1357W        W 2047   3.568   0.300   9.915
 1358W        W 2048   1.505   3.381   1.336
 1359W        W 2049   2.144   2.901   0.942
 1360W        W 2050   1.123   1.994   7.410
 1361W        W 2051   2.603   0.062   1.180
 1362W        W 2052   0.326   1.495   7.843
 1363W        W 2053   1.520   4.777   8.488
 1364W        W 2054   2.077   1.487   2.948
 1365W        W 2055   2.533   3.129   0.676
 1366W        W 2056   4.660   2.455   8.318
 1367W        W 2057   3.376   3.040   9.618
 1368W        W 2058   1.709   0.230   8.907
 1369W        W 2059   4.327   4.772   0.136
 1370W        W 2060   3.065   3.788   9.174
 1371W        W 2061   3.480   3.508   9.369
 1372W        W 2062   3.824   0.712   7.888
 1373W        W 2063   1.096   1.596   0.163
 1374W        W 2064   1.273   3.881   9.203
 1375ION     NA 2065   4.255   0.975   1.602
 1376ION     NA 2066   2.942   2.544   9.617
 1377ION     NA 2067   0.306   0.263   7.919
 1378ION     NA 2068   2.025   0.350   9.154
 1379ION     NA 2069   2.590   4.189   1.022
 1380ION     NA 2070   0.931   2.298   8.544
 1381ION     NA 2071   0.662   3.472   8.425
 1382ION     NA 2072   2.592   0.835   7.812
 1383ION     NA 2073   3.019   1.097   1.762
 1384ION     NA 2074   0.206   2.517   0.405
 1385ION     NA 2075   4.313   2.699   8.435
 1386ION     NA 2076   2.492   1.324   0.347
 1387ION     NA 2077   0.434   0.351   0.016
 1388ION     NA 2078   3.862   1.867   8.126
 1389ION     CL 2079   3.521   3.791   0.365
 1390ION     CL 2080   1.124   1.174   7.458
 1391ION     CL 2081   2.029   2.581   7.568
 1392ION     CL 2082   0.666   4.477   1.202
 1393ION     CL 2083   2.412   3.991   0.899
 1394ION     CL 2084   0.795   2.381   8.788
 1395ION     CL 2085   1.233   2.472   0.623
 1396ION     CL 2086   3.371   4.744   8.335
 1397ION     CL 2087   4.432   0.879   1.390
 1398ION     CL 2088   2.646   2.178   7.615
 1399ION     CL 2089   4.684   3.550   9.162
 1400ION     CL 2090   1.056   0.352   0.530
 1401ION     CL 2091   3.780   0.426   0.662
 1402ION     CL 2092   2.282   0.886   1.927
   5.00000   5.00000  10.00000
