INSANE! Membrane UpperLeaflet>CER6:POPC=30.0:70.0 LowerLeaflet>CER6:POPC=30.0:70.0
 2092
    1CER6   NOH    1   1.906   0.374   6.650
    1CER6    OH    2   1.934   0.569   6.350
    1CER6   GLA    3   2.133   0.452   6.350
    1CER6   GLB    4   2.031   0.501   6.350
    1CER6   C1A    5   2.149   0.445   6.050
    1CER6   C2A    6   2.096   0.477   5.750
    1CER6   C1B    7   1.882   0.516   5.450
    1CER6   C2B    8   1.896   0.573   5.150
    2CER6   NOH    9   1.401   2.334   6.650
    2CER6    OH   10   1.540   2.250   6.350
    2CER6   GLA   11   1.302   2.164   6.350
    2CER6   GLB   12   1.437   2.222   6.350
    2CER6   C1A   13   1.266   2.120   6.050
    2CER6   C2A   14   1.267   2.116   5.750
    2CER6   C1B   15   1.515   2.303   5.450
    2CER6   C2B   16   1.503   2.263   5.150
    3CER6   NOH   17   4.417   0.284   6.650
    3CER6    OH   18   4.371   0.389   6.350
    3CER6   GLA   19   4.606   0.483   6.350
    3CER6   GLB   20   4.507   0.474   6.350
    3CER6   C1A   21   4.620   0.483   6.050
    3CER6   C2A   22   4.586   0.419   5.750
    3CER6   C1B   23   4.420   0.355   5.450
    3CER6   C2B   24   4.412   0.398   5.150
    4CER6   NOH   25   3.803   1.622   6.650
    4CER6    OH   26   3.980   1.508   6.350
    4CER6   GLA   27   3.817   1.302   6.350
    4CER6   GLB   28   3.914   1.365   6.350
    4CER6   C1A   29   3.793   1.279   6.050
    4CER6   C2A   30   3.828   1.315   5.750
    4CER6   C1B   31   3.907   1.561   5.450
    4CER6   C2B   32   3.902   1.506   5.150
    5CER6   NOH   33   2.814   3.175   6.650
    5CER6    OH   34   2.897   3.198   6.350
    5CER6   GLA   35   2.981   2.966   6.350
    5CER6   GLB   36   2.975   3.119   6.350
    5CER6   C1A   37   2.972   2.989   6.050
    5CER6   C2A   38   2.928   3.011   5.750
    5CER6   C1B   39   2.986   3.234   5.450
    5CER6   C2B   40   2.964   3.208   5.150
    6CER6   NOH   41   0.699   3.682   6.650
    6CER6    OH   42   0.626   3.597   6.350
    6CER6   GLA   43   0.429   3.833   6.350
    6CER6   GLB   44   0.558   3.720   6.350
    6CER6   C1A   45   0.457   3.756   6.050
    6CER6   C2A   46   0.442   3.812   5.750
    6CER6   C1B   47   0.548   3.559   5.450
    6CER6   C2B   48   0.613   3.541   5.150
    7CER6   NOH   49   1.592   2.924   6.650
    7CER6    OH   50   1.516   2.782   6.350
    7CER6   GLA   51   1.350   3.003   6.350
    7CER6   GLB   52   1.373   2.935   6.350
    7CER6   C1A   53   1.346   2.931   6.050
    7CER6   C2A   54   1.312   2.932   5.750
    7CER6   C1B   55   1.489   2.822   5.450
    7CER6   C2B   56   1.532   2.772   5.150
    8CER6   NOH   57   3.981   4.899   6.650
    8CER6    OH   58   3.978   4.737   6.350
    8CER6   GLA   59   3.782   4.584   6.350
    8CER6   GLB   60   3.911   4.667   6.350
    8CER6   C1A   61   3.757   4.667   6.050
    8CER6   C2A   62   3.849   4.596   5.750
    8CER6   C1B   63   4.050   4.791   5.450
    8CER6   C2B   64   4.008   4.730   5.150
    9CER6   NOH   65   3.931   4.004   6.650
    9CER6    OH   66   3.988   3.917   6.350
    9CER6   GLA   67   3.783   3.793   6.350
    9CER6   GLB   68   3.912   3.855   6.350
    9CER6   C1A   69   3.799   3.755   6.050
    9CER6   C2A   70   3.844   3.808   5.750
    9CER6   C1B   71   4.068   3.870   5.450
    9CER6   C2B   72   4.058   3.872   5.150
   10CER6   NOH   73   1.497   0.718   6.650
   10CER6    OH   74   1.494   0.534   6.350
   10CER6   GLA   75   1.346   0.499   6.350
   10CER6   GLB   76   1.391   0.516   6.350
   10CER6   C1A   77   1.252   0.456   6.050
   10CER6   C2A   78   1.282   0.462   5.750
   10CER6   C1B   79   1.495   0.610   5.450
   10CER6   C2B   80   1.579   0.573   5.150
   11POPC   NC3   81   0.503   2.131   6.950
   11POPC   PO4   82   0.453   2.090   6.650
   11POPC   GL1   83   0.471   2.109   6.350
   11POPC   GL2   84   0.539   2.215   6.350
   11POPC   C1A   85   0.445   2.105   6.050
   11POPC   D2A   86   0.436   2.140   5.750
   11POPC   C3A   87   0.489   2.150   5.450
   11POPC   C4A   88   0.428   2.125   5.150
   11POPC   C1B   89   0.519   2.345   6.050
   11POPC   C2B   90   0.486   2.353   5.750
   11POPC   C3B   91   0.502   2.371   5.450
   11POPC   C4B   92   0.492   2.357   5.150
   12POPC   NC3   93   3.796   2.126   6.950
   12POPC   PO4   94   3.772   2.148   6.650
   12POPC   GL1   95   3.756   2.116   6.350
   12POPC   GL2   96   3.935   2.066   6.350
   12POPC   C1A   97   3.814   2.128   6.050
   12POPC   D2A   98   3.792   2.182   5.750
   12POPC   C3A   99   3.753   2.175   5.450
   12POPC   C4A  100   3.793   2.170   5.150
   12POPC   C1B  101   4.057   2.057   6.050
   12POPC   C2B  102   4.068   1.993   5.750
   12POPC   C3B  103   4.060   2.051   5.450
   12POPC   C4B  104   3.983   2.048   5.150
   13POPC   NC3  105   3.799   3.003   6.950
   13POPC   PO4  106   3.775   2.946   6.650
   13POPC   GL1  107   3.779   2.987   6.350
   13POPC   GL2  108   3.710   3.030   6.350
   13POPC   C1A  109   3.849   2.937   6.050
   13POPC   D2A  110   3.813   2.986   5.750
   13POPC   C3A  111   3.804   2.964   5.450
   13POPC   C4A  112   3.782   2.954   5.150
   13POPC   C1B  113   3.595   3.149   6.050
   13POPC   C2B  114   3.586   3.133   5.750
   13POPC   C3B  115   3.631   3.112   5.450
   13POPC   C4B  116   3.581   3.150   5.150
   14POPC   NC3  117   4.652   3.810   6.950
   14POPC   PO4  118   4.630   3.839   6.650
   14POPC   GL1  119   4.617   3.831   6.350
   14POPC   GL2  120   4.733   3.894   6.350
   14POPC   C1A  121   4.657   3.757   6.050
   14POPC   D2A  122   4.665   3.785   5.750
   14POPC   C3A  123   4.673   3.816   5.450
   14POPC   C4A  124   4.638   3.791   5.150
   14POPC   C1B  125   4.823   3.975   6.050
   14POPC   C2B  126   4.857   3.957   5.750
   14POPC   C3B  127   4.805   3.970   5.450
   14POPC   C4B  128   4.858   3.921   5.150
   15POPC   NC3  129   4.670   1.290   6.950
   15POPC   PO4  130   4.611   1.287   6.650
   15POPC   GL1  131   4.588   1.322   6.350
   15POPC   GL2  132   4.760   1.288   6.350
   15POPC   C1A  133   4.592   1.348   6.050
   15POPC   D2A  134   4.659   1.257   5.750
   15POPC   C3A  135   4.647   1.338   5.450
   15POPC   C4A  136   4.608   1.313   5.150
   15POPC   C1B  137   4.851   1.230   6.050
   15POPC   C2B  138   4.882   1.164   5.750
   15POPC   C3B  139   4.904   1.181   5.450
   15POPC   C4B  140   4.826   1.202   5.150
   16POPC   NC3  141   2.945   2.147   6.950
   16POPC   PO4  142   2.961   2.126   6.650
   16POPC   GL1  143   2.972   2.093   6.350
   16POPC   GL2  144   3.008   2.285   6.350
   16POPC   C1A  145   3.014   2.167   6.050
   16POPC   D2A  146   2.923   2.131   5.750
   16POPC   C3A  147   3.013   2.099   5.450
   16POPC   C4A  148   3.007   2.100   5.150
   16POPC   C1B  149   2.993   2.386   6.050
   16POPC   C2B  150   3.043   2.371   5.750
   16POPC   C3B  151   2.975   2.337   5.450
   16POPC   C4B  152   2.986   2.335   5.150
   17POPC   NC3  153   2.134   3.825   6.950
   17POPC   PO4  154   2.101   3.774   6.650
   17POPC   GL1  155   2.172   3.845   6.350
   17POPC   GL2  156   2.170   3.888   6.350
   17POPC   C1A  157   2.122   3.775   6.050
   17POPC   D2A  158   2.159   3.821   5.750
   17POPC   C3A  159   2.127   3.797   5.450
   17POPC   C4A  160   2.147   3.775   5.150
   17POPC   C1B  161   2.120   4.055   6.050
   17POPC   C2B  162   2.112   4.089   5.750
   17POPC   C3B  163   2.179   4.044   5.450
   17POPC   C4B  164   2.183   4.047   5.150
   18POPC   NC3  165   1.337   3.763   6.950
   18POPC   PO4  166   1.266   3.846   6.650
   18POPC   GL1  167   1.317   3.839   6.350
   18POPC   GL2  168   1.195   3.776   6.350
   18POPC   C1A  169   1.269   3.797   6.050
   18POPC   D2A  170   1.305   3.793   5.750
   18POPC   C3A  171   1.295   3.796   5.450
   18POPC   C4A  172   1.347   3.783   5.150
   18POPC   C1B  173   1.070   3.678   6.050
   18POPC   C2B  174   1.080   3.648   5.750
   18POPC   C3B  175   1.043   3.658   5.450
   18POPC   C4B  176   1.092   3.687   5.150
   19POPC   NC3  177   2.151   2.966   6.950
   19POPC   PO4  178   2.118   2.967   6.650
   19POPC   GL1  179   2.104   2.974   6.350
   19POPC   GL2  180   2.011   3.008   6.350
   19POPC   C1A  181   2.085   2.978   6.050
   19POPC   D2A  182   2.165   2.993   5.750
   19POPC   C3A  183   2.183   3.002   5.450
   19POPC   C4A  184   2.089   2.979   5.150
   19POPC   C1B  185   1.915   3.015   6.050
   19POPC   C2B  186   1.906   3.078   5.750
   19POPC   C3B  187   1.867   3.064   5.450
   19POPC   C4B  188   1.866   3.003   5.150
   20POPC   NC3  189   1.319   1.275   6.950
   20POPC   PO4  190   1.291   1.293   6.650
   20POPC   GL1  191   1.312   1.299   6.350
   20POPC   GL2  192   1.201   1.351   6.350
   20POPC   C1A  193   1.269   1.326   6.050
   20POPC   D2A  194   1.304   1.296   5.750
   20POPC   C3A  195   1.294   1.334   5.450
   20POPC   C4A  196   1.330   1.281   5.150
   20POPC   C1B  197   1.101   1.294   6.050
   20POPC   C2B  198   1.007   1.280   5.750
   20POPC   C3B  199   1.060   1.301   5.450
   20POPC   C4B  200   1.050   1.297   5.150
   21POPC   NC3  201   4.652   2.167   6.950
   21POPC   PO4  202   4.652   2.110   6.650
   21POPC   GL1  203   4.627   2.168   6.350
   21POPC   GL2  204   4.555   2.226   6.350
   21POPC   C1A  205   4.651   2.176   6.050
   21POPC   D2A  206   4.653   2.168   5.750
   21POPC   C3A  207   4.641   2.132   5.450
   21POPC   C4A  208   4.594   2.153   5.150
   21POPC   C1B  209   4.378   2.223   6.050
   21POPC   C2B  210   4.417   2.272   5.750
   21POPC   C3B  211   4.439   2.226   5.450
   21POPC   C4B  212   4.420   2.224   5.150
   22POPC   NC3  213   0.469   4.636   6.950
   22POPC   PO4  214   0.437   4.652   6.650
   22POPC   GL1  215   0.472   4.612   6.350
   22POPC   GL2  216   0.570   4.608   6.350
   22POPC   C1A  217   0.497   4.623   6.050
   22POPC   D2A  218   0.420   4.628   5.750
   22POPC   C3A  219   0.418   4.625   5.450
   22POPC   C4A  220   0.456   4.604   5.150
   22POPC   C1B  221   0.754   4.720   6.050
   22POPC   C2B  222   0.760   4.663   5.750
   22POPC   C3B  223   0.695   4.715   5.450
   22POPC   C4B  224   0.675   4.663   5.150
   23POPC   NC3  225   0.493   3.011   6.950
   23POPC   PO4  226   0.463   2.999   6.650
   23POPC   GL1  227   0.417   2.972   6.350
   23POPC   GL2  228   0.553   2.988   6.350
   23POPC   C1A  229   0.442   2.999   6.050
   23POPC   D2A  230   0.501   2.951   5.750
   23POPC   C3A  231   0.477   2.959   5.450
   23POPC   C4A  232   0.433   2.939   5.150
   23POPC   C1B  233   0.686   2.940   6.050
   23POPC   C2B  234   0.699   2.916   5.750
   23POPC   C3B  235   0.764   2.900   5.450
   23POPC   C4B  236   0.680   2.945   5.150
   24POPC   NC3  237   2.952   0.509   6.950
   24POPC   PO4  238   2.966   0.418   6.650
   24POPC   GL1  239   2.964   0.484   6.350
   24POPC   GL2  240   2.970   0.367   6.350
   24POPC   C1A  241   2.949   0.516   6.050
   24POPC   D2A  242   2.978   0.511   5.750
   24POPC   C3A  243   2.981   0.425   5.450
   24POPC   C4A  244   3.016   0.418   5.150
   24POPC   C1B  245   2.851   0.257   6.050
   24POPC   C2B  246   2.852   0.244   5.750
   24POPC   C3B  247   2.875   0.280   5.450
   24POPC   C4B  248   2.851   0.212   5.150
   25POPC   NC3  249   2.086   4.621   6.950
   25POPC   PO4  250   2.084   4.647   6.650
   25POPC   GL1  251   2.134   4.677   6.350
   25POPC   GL2  252   2.103   4.742   6.350
   25POPC   C1A  253   2.122   4.596   6.050
   25POPC   D2A  254   2.102   4.671   5.750
   25POPC   C3A  255   2.177   4.663   5.450
   25POPC   C4A  256   2.145   4.598   5.150
   25POPC   C1B  257   2.138   4.867   6.050
   25POPC   C2B  258   2.186   4.882   5.750
   25POPC   C3B  259   2.141   4.917   5.450
   25POPC   C4B  260   2.121   4.873   5.150
   26POPC   NC3  261   2.120   2.145   6.950
   26POPC   PO4  262   2.148   2.115   6.650
   26POPC   GL1  263   2.134   2.149   6.350
   26POPC   GL2  264   2.191   1.967   6.350
   26POPC   C1A  265   2.132   2.157   6.050
   26POPC   D2A  266   2.172   2.150   5.750
   26POPC   C3A  267   2.110   2.098   5.450
   26POPC   C4A  268   2.130   2.146   5.150
   26POPC   C1B  269   2.136   1.918   6.050
   26POPC   C2B  270   2.189   1.881   5.750
   26POPC   C3B  271   2.141   1.921   5.450
   26POPC   C4B  272   2.143   1.885   5.150
   27POPC   NC3  273   1.289   4.662   6.950
   27POPC   PO4  274   1.303   4.666   6.650
   27POPC   GL1  275   1.292   4.596   6.350
   27POPC   GL2  276   1.437   4.526   6.350
   27POPC   C1A  277   1.278   4.624   6.050
   27POPC   D2A  278   1.313   4.672   5.750
   27POPC   C3A  279   1.277   4.656   5.450
   27POPC   C4A  280   1.277   4.621   5.150
   27POPC   C1B  281   1.460   4.439   6.050
   27POPC   C2B  282   1.530   4.502   5.750
   27POPC   C3B  283   1.453   4.443   5.450
   27POPC   C4B  284   1.545   4.448   5.150
   28POPC   NC3  285   0.516   1.257   6.950
   28POPC   PO4  286   0.447   1.275   6.650
   28POPC   GL1  287   0.496   1.293   6.350
   28POPC   GL2  288   0.438   1.218   6.350
   28POPC   C1A  289   0.459   1.303   6.050
   28POPC   D2A  290   0.456   1.284   5.750
   28POPC   C3A  291   0.516   1.259   5.450
   28POPC   C4A  292   0.488   1.343   5.150
   28POPC   C1B  293   0.353   1.100   6.050
   28POPC   C2B  294   0.317   1.128   5.750
   28POPC   C3B  295   0.334   1.057   5.450
   28POPC   C4B  296   0.333   1.064   5.150
   29POPC   NC3  297   4.633   2.955   6.950
   29POPC   PO4  298   4.595   2.972   6.650
   29POPC   GL1  299   4.584   2.926   6.350
   29POPC   GL2  300   4.559   2.871   6.350
   29POPC   C1A  301   4.636   2.927   6.050
   29POPC   D2A  302   4.632   2.943   5.750
   29POPC   C3A  303   4.681   2.928   5.450
   29POPC   C4A  304   4.619   2.982   5.150
   29POPC   C1B  305   4.526   2.708   6.050
   29POPC   C2B  306   4.549   2.707   5.750
   29POPC   C3B  307   4.547   2.730   5.450
   29POPC   C4B  308   4.549   2.777   5.150
   30POPC   NC3  309   2.988   3.815   6.950
   30POPC   PO4  310   2.966   3.782   6.650
   30POPC   GL1  311   2.970   3.849   6.350
   30POPC   GL2  312   3.003   3.715   6.350
   30POPC   C1A  313   3.008   3.849   6.050
   30POPC   D2A  314   3.013   3.778   5.750
   30POPC   C3A  315   2.977   3.814   5.450
   30POPC   C4A  316   3.012   3.829   5.150
   30POPC   C1B  317   3.095   3.603   6.050
   30POPC   C2B  318   3.101   3.637   5.750
   30POPC   C3B  319   3.136   3.659   5.450
   30POPC   C4B  320   3.101   3.635   5.150
   31POPC   NC3  321   4.625   4.644   6.950
   31POPC   PO4  322   4.591   4.586   6.650
   31POPC   GL1  323   4.599   4.627   6.350
   31POPC   GL2  324   4.784   4.668   6.350
   31POPC   C1A  325   4.676   4.585   6.050
   31POPC   D2A  326   4.650   4.651   5.750
   31POPC   C3A  327   4.627   4.660   5.450
   31POPC   C4A  328   4.678   4.639   5.150
   31POPC   C1B  329   4.876   4.744   6.050
   31POPC   C2B  330   4.865   4.739   5.750
   31POPC   C3B  331   4.890   4.692   5.450
   31POPC   C4B  332   4.851   4.711   5.150
   32POPC   NC3  333   0.445   0.497   6.950
   32POPC   PO4  334   0.419   0.455   6.650
   32POPC   GL1  335   0.507   0.457   6.350
   32POPC   GL2  336   0.492   0.545   6.350
   32POPC   C1A  337   0.456   0.445   6.050
   32POPC   D2A  338   0.492   0.419   5.750
   32POPC   C3A  339   0.434   0.431   5.450
   32POPC   C4A  340   0.460   0.470   5.150
   32POPC   C1B  341   0.624   0.626   6.050
   32POPC   C2B  342   0.572   0.652   5.750
   32POPC   C3B  343   0.655   0.658   5.450
   32POPC   C4B  344   0.642   0.666   5.150
   33POPC   NC3  345   2.161   1.288   6.950
   33POPC   PO4  346   2.107   1.257   6.650
   33POPC   GL1  347   2.149   1.350   6.350
   33POPC   GL2  348   2.193   1.376   6.350
   33POPC   C1A  349   2.158   1.276   6.050
   33POPC   D2A  350   2.178   1.298   5.750
   33POPC   C3A  351   2.183   1.320   5.450
   33POPC   C4A  352   2.155   1.293   5.150
   33POPC   C1B  353   2.341   1.480   6.050
   33POPC   C2B  354   2.384   1.455   5.750
   33POPC   C3B  355   2.382   1.468   5.450
   33POPC   C4B  356   2.343   1.437   5.150
   34POPC   NC3  357   2.933   1.289   6.950
   34POPC   PO4  358   3.015   1.311   6.650
   34POPC   GL1  359   3.010   1.291   6.350
   34POPC   GL2  360   3.059   1.374   6.350
   34POPC   C1A  361   3.012   1.268   6.050
   34POPC   D2A  362   2.954   1.251   5.750
   34POPC   C3A  363   2.950   1.326   5.450
   34POPC   C4A  364   2.949   1.350   5.150
   34POPC   C1B  365   3.148   1.459   6.050
   34POPC   C2B  366   3.132   1.424   5.750
   34POPC   C3B  367   3.128   1.472   5.450
   34POPC   C4B  368   3.186   1.435   5.150
   35POPC   NC3  369   2.988   4.631   6.950
   35POPC   PO4  370   2.956   4.667   6.650
   35POPC   GL1  371   2.918   4.608   6.350
   35POPC   GL2  372   3.082   4.577   6.350
   35POPC   C1A  373   2.962   4.630   6.050
   35POPC   D2A  374   2.925   4.643   5.750
   35POPC   C3A  375   2.981   4.605   5.450
   35POPC   C4A  376   2.972   4.626   5.150
   35POPC   C1B  377   3.171   4.621   6.050
   35POPC   C2B  378   3.199   4.641   5.750
   35POPC   C3B  379   3.226   4.622   5.450
   35POPC   C4B  380   3.180   4.605   5.150
   36CER6   NOH  381   3.653   2.393   3.350
   36CER6    OH  382   3.809   2.331   3.650
   36CER6   GLA  383   3.843   2.105   3.650
   36CER6   GLB  384   3.746   2.263   3.650
   36CER6   C1A  385   3.813   2.089   3.950
   36CER6   C2A  386   3.794   2.156   4.250
   36CER6   C1B  387   3.748   2.390   4.550
   36CER6   C2B  388   3.766   2.384   4.850
   37CER6   NOH  389   2.836   1.514   3.350
   37CER6    OH  390   2.980   1.519   3.650
   37CER6   GLA  391   2.979   1.301   3.650
   37CER6   GLB  392   2.956   1.399   3.650
   37CER6   C1A  393   2.990   1.250   3.950
   37CER6   C2A  394   2.922   1.273   4.250
   37CER6   C1B  395   2.962   1.566   4.550
   37CER6   C2B  396   2.955   1.525   4.850
   38CER6   NOH  397   0.711   3.100   3.350
   38CER6    OH  398   0.712   3.001   3.650
   38CER6   GLA  399   0.451   2.953   3.650
   38CER6   GLB  400   0.613   2.959   3.650
   38CER6   C1A  401   0.516   2.976   3.950
   38CER6   C2A  402   0.420   2.967   4.250
   38CER6   C1B  403   0.671   2.992   4.550
   38CER6   C2B  404   0.676   2.994   4.850
   39CER6   NOH  405   1.315   1.605   3.350
   39CER6    OH  406   1.390   1.515   3.650
   39CER6   GLA  407   1.293   1.283   3.650
   39CER6   GLB  408   1.354   1.437   3.650
   39CER6   C1A  409   1.316   1.343   3.950
   39CER6   C2A  410   1.334   1.296   4.250
   39CER6   C1B  411   1.484   1.553   4.550
   39CER6   C2B  412   1.458   1.489   4.850
   40CER6   NOH  413   4.372   2.242   3.350
   40CER6    OH  414   4.487   2.302   3.650
   40CER6   GLA  415   4.635   2.180   3.650
   40CER6   GLB  416   4.540   2.201   3.650
   40CER6   C1A  417   4.673   2.108   3.950
   40CER6   C2A  418   4.591   2.107   4.250
   40CER6   C1B  419   4.454   2.304   4.550
   40CER6   C2B  420   4.448   2.286   4.850
   41CER6   NOH  421   4.870   3.102   3.350
   41CER6    OH  422   4.853   2.957   3.650
   41CER6   GLA  423   4.663   3.009   3.650
   41CER6   GLB  424   4.762   2.963   3.650
   41CER6   C1A  425   4.594   2.943   3.950
   41CER6   C2A  426   4.647   2.968   4.250
   41CER6   C1B  427   4.929   2.969   4.550
   41CER6   C2B  428   4.863   2.953   4.850
   42CER6   NOH  429   1.041   0.399   3.350
   42CER6    OH  430   1.053   0.551   3.650
   42CER6   GLA  431   1.338   0.420   3.650
   42CER6   GLB  432   1.160   0.548   3.650
   42CER6   C1A  433   1.264   0.474   3.950
   42CER6   C2A  434   1.271   0.488   4.250
   42CER6   C1B  435   1.052   0.532   4.550
   42CER6   C2B  436   1.028   0.565   4.850
   43CER6   NOH  437   3.868   4.087   3.350
   43CER6    OH  438   3.993   3.999   3.650
   43CER6   GLA  439   3.821   3.804   3.650
   43CER6   GLB  440   3.921   3.832   3.650
   43CER6   C1A  441   3.794   3.849   3.950
   43CER6   C2A  442   3.767   3.825   4.250
   43CER6   C1B  443   3.967   3.921   4.550
   43CER6   C2B  444   3.953   3.929   4.850
   44CER6   NOH  445   3.806   3.229   3.350
   44CER6    OH  446   3.920   3.141   3.650
   44CER6   GLA  447   3.769   2.980   3.650
   44CER6   GLB  448   3.861   3.116   3.650
   44CER6   C1A  449   3.789   2.947   3.950
   44CER6   C2A  450   3.816   2.988   4.250
   44CER6   C1B  451   3.914   3.162   4.550
   44CER6   C2B  452   3.988   3.199   4.850
   45CER6   NOH  453   2.310   1.505   3.350
   45CER6    OH  454   2.348   1.448   3.650
   45CER6   GLA  455   2.089   1.339   3.650
   45CER6   GLB  456   2.191   1.331   3.650
   45CER6   C1A  457   2.146   1.309   3.950
   45CER6   C2A  458   2.182   1.307   4.250
   45CER6   C1B  459   2.348   1.408   4.550
   45CER6   C2B  460   2.316   1.457   4.850
   46POPC   NC3  461   3.770   0.433   3.050
   46POPC   PO4  462   3.849   0.472   3.350
   46POPC   GL1  463   3.775   0.455   3.650
   46POPC   GL2  464   3.859   0.535   3.650
   46POPC   C1A  465   3.765   0.511   3.950
   46POPC   D2A  466   3.838   0.490   4.250
   46POPC   C3A  467   3.821   0.517   4.550
   46POPC   C4A  468   3.754   0.425   4.850
   46POPC   C1B  469   4.030   0.572   3.950
   46POPC   C2B  470   3.981   0.665   4.250
   46POPC   C3B  471   4.038   0.662   4.550
   46POPC   C4B  472   3.996   0.633   4.850
   47POPC   NC3  473   1.350   3.753   3.050
   47POPC   PO4  474   1.304   3.825   3.350
   47POPC   GL1  475   1.252   3.756   3.650
   47POPC   GL2  476   1.248   3.659   3.650
   47POPC   C1A  477   1.263   3.764   3.950
   47POPC   D2A  478   1.309   3.849   4.250
   47POPC   C3A  479   1.256   3.762   4.550
   47POPC   C4A  480   1.329   3.761   4.850
   47POPC   C1B  481   1.142   3.653   3.950
   47POPC   C2B  482   1.160   3.627   4.250
   47POPC   C3B  483   1.165   3.614   4.550
   47POPC   C4B  484   1.132   3.611   4.850
   48POPC   NC3  485   2.999   2.982   3.050
   48POPC   PO4  486   2.970   2.995   3.350
   48POPC   GL1  487   2.974   2.975   3.650
   48POPC   GL2  488   2.915   2.876   3.650
   48POPC   C1A  489   2.930   2.969   3.950
   48POPC   D2A  490   2.986   2.923   4.250
   48POPC   C3A  491   2.985   2.999   4.550
   48POPC   C4A  492   2.986   3.011   4.850
   48POPC   C1B  493   2.814   2.848   3.950
   48POPC   C2B  494   2.790   2.852   4.250
   48POPC   C3B  495   2.723   2.852   4.550
   48POPC   C4B  496   2.740   2.853   4.850
   49POPC   NC3  497   2.096   3.790   3.050
   49POPC   PO4  498   2.126   3.847   3.350
   49POPC   GL1  499   2.139   3.838   3.650
   49POPC   GL2  500   2.130   3.884   3.650
   49POPC   C1A  501   2.085   3.819   3.950
   49POPC   D2A  502   2.183   3.824   4.250
   49POPC   C3A  503   2.138   3.780   4.550
   49POPC   C4A  504   2.121   3.840   4.850
   49POPC   C1B  505   2.102   4.067   3.950
   49POPC   C2B  506   2.108   4.016   4.250
   49POPC   C3B  507   2.194   4.069   4.550
   49POPC   C4B  508   2.166   4.003   4.850
   50POPC   NC3  509   3.775   1.253   3.050
   50POPC   PO4  510   3.839   1.328   3.350
   50POPC   GL1  511   3.760   1.287   3.650
   50POPC   GL2  512   3.751   1.408   3.650
   50POPC   C1A  513   3.836   1.262   3.950
   50POPC   D2A  514   3.785   1.298   4.250
   50POPC   C3A  515   3.777   1.284   4.550
   50POPC   C4A  516   3.765   1.256   4.850
   50POPC   C1B  517   3.664   1.506   3.950
   50POPC   C2B  518   3.700   1.554   4.250
   50POPC   C3B  519   3.681   1.539   4.550
   50POPC   C4B  520   3.665   1.548   4.850
   51POPC   NC3  521   3.017   0.468   3.050
   51POPC   PO4  522   2.985   0.472   3.350
   51POPC   GL1  523   3.014   0.428   3.650
   51POPC   GL2  524   2.940   0.601   3.650
   51POPC   C1A  525   2.940   0.478   3.950
   51POPC   D2A  526   3.011   0.508   4.250
   51POPC   C3A  527   3.008   0.454   4.550
   51POPC   C4A  528   2.939   0.484   4.850
   51POPC   C1B  529   2.809   0.687   3.950
   51POPC   C2B  530   2.837   0.667   4.250
   51POPC   C3B  531   2.817   0.633   4.550
   51POPC   C4B  532   2.795   0.646   4.850
   52POPC   NC3  533   4.609   1.328   3.050
   52POPC   PO4  534   4.673   1.285   3.350
   52POPC   GL1  535   4.646   1.326   3.650
   52POPC   GL2  536   4.554   1.204   3.650
   52POPC   C1A  537   4.675   1.253   3.950
   52POPC   D2A  538   4.624   1.332   4.250
   52POPC   C3A  539   4.679   1.308   4.550
   52POPC   C4A  540   4.629   1.313   4.850
   52POPC   C1B  541   4.359   1.162   3.950
   52POPC   C2B  542   4.379   1.191   4.250
   52POPC   C3B  543   4.405   1.243   4.550
   52POPC   C4B  544   4.355   1.167   4.850
   53POPC   NC3  545   2.124   0.504   3.050
   53POPC   PO4  546   2.163   0.463   3.350
   53POPC   GL1  547   2.114   0.462   3.650
   53POPC   GL2  548   2.113   0.627   3.650
   53POPC   C1A  549   2.137   0.475   3.950
   53POPC   D2A  550   2.126   0.465   4.250
   53POPC   C3A  551   2.115   0.449   4.550
   53POPC   C4A  552   2.122   0.488   4.850
   53POPC   C1B  553   2.221   0.690   3.950
   53POPC   C2B  554   2.194   0.687   4.250
   53POPC   C3B  555   2.152   0.708   4.550
   53POPC   C4B  556   2.150   0.703   4.850
   54POPC   NC3  557   0.466   2.125   3.050
   54POPC   PO4  558   0.502   2.127   3.350
   54POPC   GL1  559   0.422   2.168   3.650
   54POPC   GL2  560   0.627   2.151   3.650
   54POPC   C1A  561   0.474   2.126   3.950
   54POPC   D2A  562   0.493   2.098   4.250
   54POPC   C3A  563   0.492   2.180   4.550
   54POPC   C4A  564   0.459   2.153   4.850
   54POPC   C1B  565   0.690   2.202   3.950
   54POPC   C2B  566   0.683   2.246   4.250
   54POPC   C3B  567   0.740   2.218   4.550
   54POPC   C4B  568   0.740   2.200   4.850
   55POPC   NC3  569   4.665   0.428   3.050
   55POPC   PO4  570   4.682   0.491   3.350
   55POPC   GL1  571   4.649   0.474   3.650
   55POPC   GL2  572   4.652   0.304   3.650
   55POPC   C1A  573   4.599   0.432   3.950
   55POPC   D2A  574   4.645   0.495   4.250
   55POPC   C3A  575   4.660   0.453   4.550
   55POPC   C4A  576   4.618   0.441   4.850
   55POPC   C1B  577   4.650   0.201   3.950
   55POPC   C2B  578   4.644   0.181   4.250
   55POPC   C3B  579   4.655   0.249   4.550
   55POPC   C4B  580   4.634   0.172   4.850
   56POPC   NC3  581   0.490   4.589   3.050
   56POPC   PO4  582   0.425   4.591   3.350
   56POPC   GL1  583   0.431   4.615   3.650
   56POPC   GL2  584   0.563   4.585   3.650
   56POPC   C1A  585   0.493   4.584   3.950
   56POPC   D2A  586   0.459   4.596   4.250
   56POPC   C3A  587   0.490   4.602   4.550
   56POPC   C4A  588   0.477   4.677   4.850
   56POPC   C1B  589   0.639   4.471   3.950
   56POPC   C2B  590   0.662   4.514   4.250
   56POPC   C3B  591   0.668   4.483   4.550
   56POPC   C4B  592   0.706   4.565   4.850
   57POPC   NC3  593   0.452   3.803   3.050
   57POPC   PO4  594   0.479   3.798   3.350
   57POPC   GL1  595   0.428   3.845   3.650
   57POPC   GL2  596   0.384   3.873   3.650
   57POPC   C1A  597   0.454   3.784   3.950
   57POPC   D2A  598   0.418   3.776   4.250
   57POPC   C3A  599   0.428   3.776   4.550
   57POPC   C4A  600   0.500   3.775   4.850
   57POPC   C1B  601   0.363   4.011   3.950
   57POPC   C2B  602   0.431   4.017   4.250
   57POPC   C3B  603   0.420   4.079   4.550
   57POPC   C4B  604   0.441   4.062   4.850
   58POPC   NC3  605   4.673   4.591   3.050
   58POPC   PO4  606   4.667   4.589   3.350
   58POPC   GL1  607   4.623   4.646   3.650
   58POPC   GL2  608   4.551   4.744   3.650
   58POPC   C1A  609   4.681   4.678   3.950
   58POPC   D2A  610   4.663   4.634   4.250
   58POPC   C3A  611   4.669   4.649   4.550
   58POPC   C4A  612   4.606   4.663   4.850
   58POPC   C1B  613   4.435   4.791   3.950
   58POPC   C2B  614   4.461   4.847   4.250
   58POPC   C3B  615   4.476   4.866   4.550
   58POPC   C4B  616   4.469   4.838   4.850
   59POPC   NC3  617   2.933   2.158   3.050
   59POPC   PO4  618   2.928   2.137   3.350
   59POPC   GL1  619   2.945   2.104   3.650
   59POPC   GL2  620   3.139   2.169   3.650
   59POPC   C1A  621   2.921   2.130   3.950
   59POPC   D2A  622   2.993   2.183   4.250
   59POPC   C3A  623   2.956   2.108   4.550
   59POPC   C4A  624   2.979   2.104   4.850
   59POPC   C1B  625   3.215   2.176   3.950
   59POPC   C2B  626   3.237   2.141   4.250
   59POPC   C3B  627   3.233   2.183   4.550
   59POPC   C4B  628   3.166   2.200   4.850
   60POPC   NC3  629   2.142   2.968   3.050
   60POPC   PO4  630   2.093   2.959   3.350
   60POPC   GL1  631   2.093   2.978   3.650
   60POPC   GL2  632   2.243   3.014   3.650
   60POPC   C1A  633   2.089   2.925   3.950
   60POPC   D2A  634   2.132   2.965   4.250
   60POPC   C3A  635   2.122   2.930   4.550
   60POPC   C4A  636   2.173   2.926   4.850
   60POPC   C1B  637   2.272   3.195   3.950
   60POPC   C2B  638   2.253   3.190   4.250
   60POPC   C3B  639   2.349   3.153   4.550
   60POPC   C4B  640   2.304   3.179   4.850
   61POPC   NC3  641   0.503   1.284   3.050
   61POPC   PO4  642   0.468   1.341   3.350
   61POPC   GL1  643   0.465   1.274   3.650
   61POPC   GL2  644   0.444   1.144   3.650
   61POPC   C1A  645   0.473   1.348   3.950
   61POPC   D2A  646   0.501   1.318   4.250
   61POPC   C3A  647   0.431   1.302   4.550
   61POPC   C4A  648   0.505   1.250   4.850
   61POPC   C1B  649   0.335   1.106   3.950
   61POPC   C2B  650   0.296   1.129   4.250
   61POPC   C3B  651   0.306   1.127   4.550
   61POPC   C4B  652   0.320   1.114   4.850
   62POPC   NC3  653   1.304   2.957   3.050
   62POPC   PO4  654   1.339   2.928   3.350
   62POPC   GL1  655   1.286   2.983   3.650
   62POPC   GL2  656   1.237   3.074   3.650
   62POPC   C1A  657   1.315   2.922   3.950
   62POPC   D2A  658   1.260   2.997   4.250
   62POPC   C3A  659   1.314   2.986   4.550
   62POPC   C4A  660   1.331   2.994   4.850
   62POPC   C1B  661   1.084   3.161   3.950
   62POPC   C2B  662   1.129   3.169   4.250
   62POPC   C3B  663   1.085   3.128   4.550
   62POPC   C4B  664   1.125   3.165   4.850
   63POPC   NC3  665   1.255   2.179   3.050
   63POPC   PO4  666   1.272   2.141   3.350
   63POPC   GL1  667   1.252   2.155   3.650
   63POPC   GL2  668   1.203   2.106   3.650
   63POPC   C1A  669   1.341   2.086   3.950
   63POPC   D2A  670   1.329   2.094   4.250
   63POPC   C3A  671   1.315   2.129   4.550
   63POPC   C4A  672   1.297   2.170   4.850
   63POPC   C1B  673   1.027   2.112   3.950
   63POPC   C2B  674   1.098   2.127   4.250
   63POPC   C3B  675   1.081   2.118   4.550
   63POPC   C4B  676   1.033   2.105   4.850
   64POPC   NC3  677   1.347   4.680   3.050
   64POPC   PO4  678   1.261   4.635   3.350
   64POPC   GL1  679   1.335   4.676   3.650
   64POPC   GL2  680   1.167   4.607   3.650
   64POPC   C1A  681   1.286   4.590   3.950
   64POPC   D2A  682   1.298   4.633   4.250
   64POPC   C3A  683   1.256   4.604   4.550
   64POPC   C4A  684   1.267   4.589   4.850
   64POPC   C1B  685   1.121   4.494   3.950
   64POPC   C2B  686   1.100   4.507   4.250
   64POPC   C3B  687   1.144   4.504   4.550
   64POPC   C4B  688   1.055   4.444   4.850
   65POPC   NC3  689   4.591   3.772   3.050
   65POPC   PO4  690   4.602   3.768   3.350
   65POPC   GL1  691   4.605   3.750   3.650
   65POPC   GL2  692   4.608   3.675   3.650
   65POPC   C1A  693   4.625   3.797   3.950
   65POPC   D2A  694   4.618   3.757   4.250
   65POPC   C3A  695   4.635   3.754   4.550
   65POPC   C4A  696   4.633   3.801   4.850
   65POPC   C1B  697   4.571   3.598   3.950
   65POPC   C2B  698   4.574   3.564   4.250
   65POPC   C3B  699   4.600   3.598   4.550
   65POPC   C4B  700   4.571   3.534   4.850
   66POPC   NC3  701   2.087   2.168   3.050
   66POPC   PO4  702   2.113   2.089   3.350
   66POPC   GL1  703   2.148   2.155   3.650
   66POPC   GL2  704   2.098   2.212   3.650
   66POPC   C1A  705   2.150   2.083   3.950
   66POPC   D2A  706   2.141   2.141   4.250
   66POPC   C3A  707   2.147   2.158   4.550
   66POPC   C4A  708   2.125   2.103   4.850
   66POPC   C1B  709   2.029   2.313   3.950
   66POPC   C2B  710   2.073   2.337   4.250
   66POPC   C3B  711   1.993   2.318   4.550
   66POPC   C4B  712   2.059   2.407   4.850
   67POPC   NC3  713   2.098   4.605   3.050
   67POPC   PO4  714   2.156   4.598   3.350
   67POPC   GL1  715   2.127   4.614   3.650
   67POPC   GL2  716   2.067   4.707   3.650
   67POPC   C1A  717   2.161   4.588   3.950
   67POPC   D2A  718   2.177   4.619   4.250
   67POPC   C3A  719   2.119   4.587   4.550
   67POPC   C4A  720   2.119   4.631   4.850
   67POPC   C1B  721   2.059   4.824   3.950
   67POPC   C2B  722   2.061   4.881   4.250
   67POPC   C3B  723   2.045   4.904   4.550
   67POPC   C4B  724   2.035   4.872   4.850
   68POPC   NC3  725   3.824   4.636   3.050
   68POPC   PO4  726   3.783   4.672   3.350
   68POPC   GL1  727   3.830   4.634   3.650
   68POPC   GL2  728   3.658   4.581   3.650
   68POPC   C1A  729   3.812   4.600   3.950
   68POPC   D2A  730   3.828   4.640   4.250
   68POPC   C3A  731   3.811   4.601   4.550
   68POPC   C4A  732   3.769   4.614   4.850
   68POPC   C1B  733   3.577   4.613   3.950
   68POPC   C2B  734   3.540   4.573   4.250
   68POPC   C3B  735   3.518   4.636   4.550
   68POPC   C4B  736   3.588   4.550   4.850
   69POPC   NC3  737   2.939   4.679   3.050
   69POPC   PO4  738   2.935   4.593   3.350
   69POPC   GL1  739   2.993   4.637   3.650
   69POPC   GL2  740   2.958   4.551   3.650
   69POPC   C1A  741   2.960   4.619   3.950
   69POPC   D2A  742   2.927   4.630   4.250
   69POPC   C3A  743   2.974   4.599   4.550
   69POPC   C4A  744   2.967   4.611   4.850
   69POPC   C1B  745   2.922   4.407   3.950
   69POPC   C2B  746   2.948   4.406   4.250
   69POPC   C3B  747   2.933   4.425   4.550
   69POPC   C4B  748   2.936   4.402   4.850
   70POPC   NC3  749   0.457   0.483   3.050
   70POPC   PO4  750   0.447   0.503   3.350
   70POPC   GL1  751   0.494   0.439   3.650
   70POPC   GL2  752   0.591   0.414   3.650
   70POPC   C1A  753   0.448   0.473   3.950
   70POPC   D2A  754   0.429   0.502   4.250
   70POPC   C3A  755   0.492   0.446   4.550
   70POPC   C4A  756   0.466   0.476   4.850
   70POPC   C1B  757   0.727   0.451   3.950
   70POPC   C2B  758   0.710   0.379   4.250
   70POPC   C3B  759   0.760   0.412   4.550
   70POPC   C4B  760   0.693   0.433   4.850
   71W        W  761   4.321   2.969   8.375
   72W        W  762   3.452   1.630   7.882
   73W        W  763   0.247   2.994   1.196
   74W        W  764   2.959   4.320   7.886
   75W        W  765   3.447   1.629   1.196
   76W        W  766   2.501   3.431   8.839
   77W        W  767   2.079   3.864   8.370
   78W        W  768   1.596   1.152   3.126
   79W        W  769   3.876   2.972   1.709
   80W        W  770   2.961   1.149   8.342
   81W        W  771   4.776   2.541   2.658
   82W        W  772   1.633   2.539   0.738
   83W        W  773   0.237   4.811   0.262
   84W        W  774   2.960   4.782   1.691
   85W        W  775   4.776   4.807   8.848
   86W        W  776   0.717   4.796   1.216
   87W        W  777   2.984   2.048   0.759
   88W        W  778   2.956   2.530   8.335
   89W        W  779   2.971   0.719   9.294
   90W        W  780   4.774   2.541   0.725
   91W        W  781   0.725   2.083   0.274
   92W        W  782   3.873   3.409   9.295
   93W        W  783   1.146   1.630   9.305
   94W        W  784   4.338   0.256   8.856
   95W        W  785   0.258   2.537   8.849
   96W        W  786   2.533   3.898   7.872
   97W        W  787   3.428   1.169   8.347
   98W        W  788   2.080   1.179   8.353
   99W        W  789   3.419   4.338   8.364
  100W        W  790   4.778   1.165   0.738
  101W        W  791   2.058   0.241   9.782
  102W        W  792   1.617   3.442   0.756
  103W        W  793   2.967   2.513   1.193
  104W        W  794   3.881   2.958   2.662
  105W        W  795   1.161   2.080   0.719
  106W        W  796   1.634   2.086   7.391
  107W        W  797   2.974   4.356   2.167
  108W        W  798   3.440   2.074   0.744
  109W        W  799   4.337   3.441   9.807
  110W        W  800   2.526   4.326   0.244
  111W        W  801   2.078   4.319   1.208
  112W        W  802   0.718   4.785   0.280
  113W        W  803   0.233   2.974   8.370
  114W        W  804   1.635   2.058   9.785
  115W        W  805   3.444   3.431   7.396
  116W        W  806   4.339   4.800   0.761
  117W        W  807   2.076   1.599   8.831
  118W        W  808   0.266   3.903   8.336
  119W        W  809   2.519   4.815   1.203
  120W        W  810   1.613   3.879   7.865
  121W        W  811   2.958   3.414   8.362
  122W        W  812   1.607   0.250   7.398
  123W        W  813   2.517   1.623   9.798
  124W        W  814   1.635   1.165   9.771
  125W        W  815   4.781   2.538   1.671
  126W        W  816   3.451   3.882   0.264
  127W        W  817   3.891   1.140   1.673
  128W        W  818   0.697   4.783   8.845
  129W        W  819   1.623   1.147   2.178
  130W        W  820   3.418   3.902   2.648
  131W        W  821   3.901   1.619   1.690
  132W        W  822   3.413   2.080   9.327
  133W        W  823   0.259   0.260   1.193
  134W        W  824   0.244   2.975   8.812
  135W        W  825   1.596   4.811   9.292
  136W        W  826   1.182   1.179   7.880
  137W        W  827   0.270   0.726   7.859
  138W        W  828   3.421   0.684   0.724
  139W        W  829   1.623   2.977   8.852
  140W        W  830   2.963   1.615   8.825
  141W        W  831   2.544   3.890   9.769
  142W        W  832   3.899   1.608   8.335
  143W        W  833   2.967   4.357   8.849
  144W        W  834   4.811   0.270   9.322
  145W        W  835   0.231   1.624   0.741
  146W        W  836   0.690   2.066   8.831
  147W        W  837   0.239   3.902   7.869
  148W        W  838   2.999   4.361   9.789
  149W        W  839   2.088   2.532   8.356
  150W        W  840   0.241   2.502   9.297
  151W        W  841   2.986   3.884   2.143
  152W        W  842   4.340   3.412   2.661
  153W        W  843   0.712   1.173   8.364
  154W        W  844   0.688   3.891   7.414
  155W        W  845   2.046   2.975   8.344
  156W        W  846   1.595   4.359   7.889
  157W        W  847   1.148   1.153   1.670
  158W        W  848   2.972   0.709   9.781
  159W        W  849   0.256   4.807   1.202
  160W        W  850   2.051   0.242   0.284
  161W        W  851   3.883   2.967   1.202
  162W        W  852   2.503   2.993   8.837
  163W        W  853   2.052   1.614   2.157
  164W        W  854   2.976   4.352   0.724
  165W        W  855   3.412   2.955   7.868
  166W        W  856   3.866   1.170   0.240
  167W        W  857   0.716   2.988   7.883
  168W        W  858   2.057   4.782   8.366
  169W        W  859   2.987   2.077   1.686
  170W        W  860   4.797   4.340   8.368
  171W        W  861   4.779   2.055   9.326
  172W        W  862   3.447   1.599   0.723
  173W        W  863   3.434   4.340   0.257
  174W        W  864   4.319   4.337   1.213
  175W        W  865   2.049   3.451   0.759
  176W        W  866   3.888   4.323   7.877
  177W        W  867   2.058   1.179   0.759
  178W        W  868   0.264   4.785   9.292
  179W        W  869   3.892   2.065   7.902
  180W        W  870   4.801   2.531   7.402
  181W        W  871   2.064   0.700   7.420
  182W        W  872   0.248   0.270   8.351
  183W        W  873   1.178   1.148   2.654
  184W        W  874   4.337   3.895   1.238
  185W        W  875   3.453   3.880   1.675
  186W        W  876   3.867   4.816   0.715
  187W        W  877   1.631   2.964   1.194
  188W        W  878   0.250   3.429   8.853
  189W        W  879   4.354   1.168   1.677
  190W        W  880   2.081   2.526   7.894
  191W        W  881   1.594   1.593   9.332
  192W        W  882   0.697   3.425   9.798
  193W        W  883   1.176   0.259   7.419
  194W        W  884   3.451   3.416   7.901
  195W        W  885   2.512   2.540   7.893
  196W        W  886   4.341   0.717   7.418
  197W        W  887   4.353   2.049   8.831
  198W        W  888   2.079   0.721   8.379
  199W        W  889   2.086   2.958   9.328
  200W        W  890   0.707   4.801   7.901
  201W        W  891   4.800   0.702   1.197
  202W        W  892   3.896   2.070   2.639
  203W        W  893   1.611   0.266   9.805
  204W        W  894   0.691   1.636   7.404
  205W        W  895   0.236   3.429   9.312
  206W        W  896   3.440   0.725   7.881
  207W        W  897   1.176   2.974   1.224
  208W        W  898   1.613   4.799   7.864
  209W        W  899   0.692   2.506   7.409
  210W        W  900   4.812   1.625   8.358
  211W        W  901   1.611   0.710   0.247
  212W        W  902   0.255   0.688   1.234
  213W        W  903   2.969   3.433   9.312
  214W        W  904   2.529   1.624   1.689
  215W        W  905   4.329   1.168   2.166
  216W        W  906   3.437   2.046   0.241
  217W        W  907   4.344   4.329   7.871
  218W        W  908   3.452   2.526   0.735
  219W        W  909   0.685   2.975   2.630
  220W        W  910   2.076   0.704   9.316
  221W        W  911   0.272   2.986   1.679
  222W        W  912   1.595   4.357   1.193
  223W        W  913   1.629   2.545   2.630
  224W        W  914   1.591   1.140   0.754
  225W        W  915   3.893   2.989   9.306
  226W        W  916   1.160   0.259   8.348
  227W        W  917   1.137   3.409   8.359
  228W        W  918   2.961   3.903   1.236
  229W        W  919   2.529   0.244   7.413
  230W        W  920   0.268   4.779   8.338
  231W        W  921   0.685   1.169   9.795
  232W        W  922   4.803   4.807   0.256
  233W        W  923   2.983   4.341   9.298
  234W        W  924   0.715   0.712   2.162
  235W        W  925   0.246   2.532   1.208
  236W        W  926   4.355   0.239   7.876
  237W        W  927   0.717   0.264   2.164
  238W        W  928   2.531   2.086   1.695
  239W        W  929   1.171   1.137   9.763
  240W        W  930   4.321   0.261   2.165
  241W        W  931   3.908   2.523   0.239
  242W        W  932   0.698   3.899   0.276
  243W        W  933   2.064   2.955   0.273
  244W        W  934   0.245   2.052   1.199
  245W        W  935   2.985   4.776   8.813
  246W        W  936   3.437   2.075   2.639
  247W        W  937   3.424   2.997   9.287
  248W        W  938   3.420   0.694   8.830
  249W        W  939   1.175   2.966   1.683
  250W        W  940   0.246   0.724   0.716
  251W        W  941   2.976   1.149   0.263
  252W        W  942   2.538   3.864   2.637
  253W        W  943   3.869   2.054   0.247
  254W        W  944   0.260   3.447   7.878
  255W        W  945   4.343   0.710   0.741
  256W        W  946   2.519   2.539   8.380
  257W        W  947   1.171   1.154   2.178
  258W        W  948   2.976   1.609   9.780
  259W        W  949   0.724   3.438   0.726
  260W        W  950   0.241   2.088   7.898
  261W        W  951   1.152   2.978   7.395
  262W        W  952   1.620   4.355   8.358
  263W        W  953   4.784   0.694   0.259
  264W        W  954   0.696   0.708   8.843
  265W        W  955   4.815   4.774   7.900
  266W        W  956   3.436   3.867   9.789
  267W        W  957   4.816   3.895   8.349
  268W        W  958   3.903   2.978   8.855
  269W        W  959   3.883   2.075   9.782
  270W        W  960   1.616   4.364   8.844
  271W        W  961   0.257   1.612   2.165
  272W        W  962   1.154   2.990   0.726
  273W        W  963   2.508   2.972   9.297
  274W        W  964   0.251   4.349   8.843
  275W        W  965   4.359   2.960   2.147
  276W        W  966   4.807   4.337   2.148
  277W        W  967   3.902   0.257   0.278
  278W        W  968   0.690   2.513   2.660
  279W        W  969   2.969   3.000   9.329
  280W        W  970   3.422   4.798   7.896
  281W        W  971   1.599   2.971   1.676
  282W        W  972   4.808   4.337   9.772
  283W        W  973   0.691   3.887   0.733
  284W        W  974   0.249   2.076   1.690
  285W        W  975   2.050   3.418   1.208
  286W        W  976   1.154   1.155   8.823
  287W        W  977   2.077   4.788   0.745
  288W        W  978   1.146   0.682   1.682
  289W        W  979   0.714   1.609   8.835
  290W        W  980   2.982   3.872   8.353
  291W        W  981   3.439   0.241   1.696
  292W        W  982   2.072   3.413   9.800
  293W        W  983   2.521   3.417   1.218
  294W        W  984   2.979   2.050   8.834
  295W        W  985   2.503   2.545   9.800
  296W        W  986   2.521   0.692   8.363
  297W        W  987   3.439   2.506   1.709
  298W        W  988   3.879   0.250   2.143
  299W        W  989   0.246   3.903   9.303
  300W        W  990   0.695   0.264   1.220
  301W        W  991   4.333   4.362   9.297
  302W        W  992   2.529   3.453   0.754
  303W        W  993   3.437   4.811   2.628
  304W        W  994   1.143   0.243   7.869
  305W        W  995   2.522   0.247   7.875
  306W        W  996   4.322   3.422   0.263
  307W        W  997   4.337   4.814   2.640
  308W        W  998   0.249   1.163   9.808
  309W        W  999   3.871   2.970   2.161
  310W        W 1000   1.616   2.981   7.872
  311W        W 1001   3.866   2.507   8.379
  312W        W 1002   0.249   4.785   9.794
  313W        W 1003   2.521   3.888   7.384
  314W        W 1004   0.260   2.521   7.891
  315W        W 1005   0.692   2.961   2.190
  316W        W 1006   3.445   0.715   1.688
  317W        W 1007   2.089   1.163   9.322
  318W        W 1008   3.452   4.795   2.165
  319W        W 1009   0.714   1.168   0.266
  320W        W 1010   2.069   0.690   8.838
  321W        W 1011   0.696   4.320   8.839
  322W        W 1012   4.806   4.816   2.154
  323W        W 1013   1.151   2.518   9.306
  324W        W 1014   2.527   2.051   0.285
  325W        W 1015   0.725   2.982   0.734
  326W        W 1016   0.230   1.636   8.813
  327W        W 1017   1.625   1.148   1.670
  328W        W 1018   1.171   2.992   0.246
  329W        W 1019   3.439   2.508   8.349
  330W        W 1020   1.622   4.324   9.296
  331W        W 1021   2.080   2.503   0.721
  332W        W 1022   0.232   4.362   2.165
  333W        W 1023   4.801   0.689   9.320
  334W        W 1024   3.431   2.536   7.863
  335W        W 1025   3.895   3.434   8.823
  336W        W 1026   2.050   4.361   0.243
  337W        W 1027   0.705   1.140   8.819
  338W        W 1028   2.086   2.075   0.248
  339W        W 1029   2.065   4.804   9.295
  340W        W 1030   4.319   0.685   9.289
  341W        W 1031   2.074   3.887   1.667
  342W        W 1032   0.264   2.533   0.738
  343W        W 1033   0.692   0.725   0.717
  344W        W 1034   0.724   3.409   7.859
  345W        W 1035   4.789   0.713   8.337
  346W        W 1036   2.959   1.613   8.345
  347W        W 1037   2.529   2.085   8.823
  348W        W 1038   2.963   3.424   0.738
  349W        W 1039   3.446   1.146   0.256
  350W        W 1040   3.893   3.414   7.406
  351W        W 1041   3.891   2.971   0.241
  352W        W 1042   3.871   4.322   9.311
  353W        W 1043   2.510   4.814   8.817
  354W        W 1044   4.345   3.888   1.690
  355W        W 1045   2.060   2.516   9.321
  356W        W 1046   4.338   2.541   2.186
  357W        W 1047   3.420   2.047   8.814
  358W        W 1048   3.867   1.595   9.801
  359W        W 1049   1.614   3.869   2.185
  360W        W 1050   4.325   2.544   9.300
  361W        W 1051   4.354   3.436   1.675
  362W        W 1052   4.791   1.153   8.364
  363W        W 1053   2.070   2.969   1.231
  364W        W 1054   2.065   1.617   1.704
  365W        W 1055   1.619   2.527   0.245
  366W        W 1056   0.268   0.702   9.294
  367W        W 1057   0.237   1.157   9.298
  368W        W 1058   0.238   0.723   1.677
  369W        W 1059   1.593   2.084   2.187
  370W        W 1060   2.085   3.410   0.239
  371W        W 1061   1.154   1.603   2.163
  372W        W 1062   4.809   3.439   8.842
  373W        W 1063   2.996   3.896   3.123
  374W        W 1064   4.338   0.699   1.669
  375W        W 1065   0.246   1.182   8.818
  376W        W 1066   3.907   1.168   1.215
  377W        W 1067   3.895   0.696   0.761
  378W        W 1068   3.418   1.615   9.293
  379W        W 1069   4.780   1.156   9.310
  380W        W 1070   4.352   0.267   1.206
  381W        W 1071   0.686   4.804   1.704
  382W        W 1072   2.500   1.144   1.227
  383W        W 1073   4.781   4.799   1.220
  384W        W 1074   3.441   3.442   0.731
  385W        W 1075   0.711   2.543   0.251
  386W        W 1076   0.241   4.324   7.857
  387W        W 1077   3.449   1.168   7.425
  388W        W 1078   2.544   0.233   8.834
  389W        W 1079   2.073   4.341   8.838
  390W        W 1080   4.788   1.171   1.714
  391W        W 1081   3.451   1.608   9.804
  392W        W 1082   2.513   0.695   1.218
  393W        W 1083   4.352   4.363   0.742
  394W        W 1084   4.321   2.501   0.760
  395W        W 1085   0.688   1.165   9.320
  396W        W 1086   0.717   0.726   1.679
  397W        W 1087   4.781   1.602   7.415
  398W        W 1088   0.237   4.357   9.768
  399W        W 1089   4.802   0.724   2.175
  400W        W 1090   4.797   2.975   1.218
  401W        W 1091   3.870   2.955   8.370
  402W        W 1092   1.626   1.611   2.664
  403W        W 1093   2.069   2.966   1.693
  404W        W 1094   2.955   2.978   8.819
  405W        W 1095   4.801   3.432   0.240
  406W        W 1096   1.141   0.701   7.409
  407W        W 1097   2.986   1.592   1.202
  408W        W 1098   1.138   4.804   9.770
  409W        W 1099   3.894   1.179   9.295
  410W        W 1100   1.175   2.992   7.873
  411W        W 1101   1.144   0.712   7.899
  412W        W 1102   4.335   4.332   0.264
  413W        W 1103   4.815   4.347   9.320
  414W        W 1104   2.999   0.272   8.856
  415W        W 1105   1.146   4.357   0.265
  416W        W 1106   4.343   1.601   7.879
  417W        W 1107   4.780   4.325   7.903
  418W        W 1108   4.779   0.262   9.766
  419W        W 1109   2.956   3.434   1.686
  420W        W 1110   3.903   2.519   1.686
  421W        W 1111   3.898   1.604   8.813
  422W        W 1112   2.977   1.598   9.313
  423W        W 1113   3.453   0.684   9.304
  424W        W 1114   4.797   4.321   8.857
  425W        W 1115   1.633   1.597   1.224
  426W        W 1116   3.905   2.505   2.629
  427W        W 1117   1.158   4.326   1.213
  428W        W 1118   1.636   0.249   7.890
  429W        W 1119   1.139   1.629   8.361
  430W        W 1120   0.712   4.807   9.766
  431W        W 1121   2.086   1.142   0.244
  432W        W 1122   2.973   0.690   1.685
  433W        W 1123   1.158   2.503   7.865
  434W        W 1124   2.535   1.592   8.822
  435W        W 1125   4.327   4.812   9.790
  436W        W 1126   3.431   2.537   9.311
  437W        W 1127   2.525   3.440   9.290
  438W        W 1128   1.149   4.803   1.199
  439W        W 1129   4.325   2.532   7.898
  440W        W 1130   2.987   2.998   7.385
  441W        W 1131   4.324   4.818   2.160
  442W        W 1132   4.346   4.793   9.310
  443W        W 1133   0.708   2.516   1.671
  444W        W 1134   3.902   4.784   7.426
  445W        W 1135   4.348   3.418   7.414
  446W        W 1136   2.509   2.077   1.207
  447W        W 1137   2.545   1.599   2.643
  448W        W 1138   3.445   1.147   9.330
  449W        W 1139   2.060   0.241   8.825
  450W        W 1140   4.322   2.046   1.193
  451W        W 1141   1.620   1.609   0.268
  452W        W 1142   0.699   2.526   9.794
  453W        W 1143   2.539   4.815   0.251
  454W        W 1144   0.235   0.259   2.174
  455W        W 1145   2.524   1.625   1.206
  456W        W 1146   0.254   1.157   8.352
  457W        W 1147   0.255   2.958   2.154
  458W        W 1148   4.331   4.324   9.786
  459W        W 1149   3.897   1.611   7.883
  460W        W 1150   1.148   3.413   2.638
  461W        W 1151   0.703   0.719   7.863
  462W        W 1152   4.784   2.066   9.782
  463W        W 1153   3.418   3.453   2.620
  464W        W 1154   3.888   3.451   0.249
  465W        W 1155   4.803   2.060   0.754
  466W        W 1156   3.421   1.165   0.726
  467W        W 1157   4.341   0.715   2.157
  468W        W 1158   3.450   2.086   1.219
  469W        W 1159   2.513   4.782   7.868
  470W        W 1160   4.354   2.538   0.266
  471W        W 1161   4.794   4.796   1.696
  472W        W 1162   2.512   0.699   0.746
  473W        W 1163   2.963   3.907   8.811
  474W        W 1164   3.438   0.684   9.808
  475W        W 1165   2.995   0.727   2.146
  476W        W 1166   2.981   1.167   8.828
  477W        W 1167   3.417   3.443   1.671
  478W        W 1168   2.994   2.983   7.877
  479W        W 1169   2.536   3.891   9.289
  480W        W 1170   4.340   3.412   8.372
  481W        W 1171   0.709   2.542   2.181
  482W        W 1172   2.540   4.816   0.751
  483W        W 1173   1.631   0.687   7.858
  484W        W 1174   4.355   4.782   1.672
  485W        W 1175   1.616   3.426   2.161
  486W        W 1176   0.718   4.343   1.222
  487W        W 1177   2.539   0.707   2.151
  488W        W 1178   3.429   2.050   1.680
  489W        W 1179   4.790   2.078   7.902
  490W        W 1180   1.141   4.816   0.260
  491W        W 1181   2.047   3.867   0.736
  492W        W 1182   1.613   0.253   1.207
  493W        W 1183   3.901   2.535   7.882
  494W        W 1184   4.792   3.440   0.732
  495W        W 1185   3.884   2.541   9.311
  496W        W 1186   4.354   2.054   8.361
  497W        W 1187   3.903   1.614   9.327
  498W        W 1188   0.691   2.076   9.313
  499W        W 1189   0.711   2.982   1.233
  500W        W 1190   3.871   4.361   1.704
  501W        W 1191   2.535   3.412   2.145
  502W        W 1192   3.904   3.904   9.292
  503W        W 1193   4.813   2.539   9.764
  504W        W 1194   3.430   0.705   1.222
  505W        W 1195   2.047   3.449   7.876
  506W        W 1196   1.606   4.797   0.269
  507W        W 1197   2.968   2.966   2.168
  508W        W 1198   0.697   3.879   7.891
  509W        W 1199   1.167   4.786   7.863
  510W        W 1200   4.346   0.696   8.349
  511W        W 1201   2.057   3.878   0.269
  512W        W 1202   4.335   1.180   1.222
  513W        W 1203   4.789   1.148   9.801
  514W        W 1204   0.264   1.154   0.258
  515W        W 1205   4.794   0.265   0.241
  516W        W 1206   1.180   4.784   2.147
  517W        W 1207   2.989   0.249   9.781
  518W        W 1208   1.180   3.887   0.253
  519W        W 1209   2.998   3.428   9.795
  520W        W 1210   3.438   0.239   7.408
  521W        W 1211   3.867   0.692   8.838
  522W        W 1212   2.072   0.239   2.145
  523W        W 1213   0.244   0.715   2.174
  524W        W 1214   4.788   3.452   1.210
  525W        W 1215   2.982   0.246   0.718
  526W        W 1216   2.997   2.980   0.245
  527W        W 1217   2.522   0.722   0.285
  528W        W 1218   1.144   4.356   1.685
  529W        W 1219   3.871   4.351   8.367
  530W        W 1220   0.238   0.698   0.281
  531W        W 1221   4.775   4.338   0.251
  532W        W 1222   2.530   3.874   0.730
  533W        W 1223   1.593   4.784   8.356
  534W        W 1224   3.421   0.726   2.664
  535W        W 1225   2.047   0.695   1.199
  536W        W 1226   4.795   1.606   0.718
  537W        W 1227   4.806   4.346   1.198
  538W        W 1228   2.955   3.884   9.779
  539W        W 1229   2.987   3.447   2.165
  540W        W 1230   4.779   2.986   9.800
  541W        W 1231   4.801   2.086   8.369
  542W        W 1232   1.154   4.336   7.899
  543W        W 1233   2.505   2.526   1.227
  544W        W 1234   1.604   0.687   0.761
  545W        W 1235   4.356   4.816   1.218
  546W        W 1236   2.052   0.710   7.875
  547W        W 1237   0.258   4.816   1.671
  548W        W 1238   1.160   3.438   2.153
  549W        W 1239   4.344   3.430   0.745
  550W        W 1240   0.262   4.325   0.735
  551W        W 1241   2.517   1.175   8.353
  552W        W 1242   2.078   1.618   0.272
  553W        W 1243   3.428   0.229   1.237
  554W        W 1244   2.974   3.445   2.665
  555W        W 1245   1.150   2.515   9.767
  556W        W 1246   1.630   2.077   7.859
  557W        W 1247   3.873   4.782   1.691
  558W        W 1248   2.965   2.513   7.890
  559W        W 1249   0.239   2.516   8.380
  560W        W 1250   3.437   1.144   7.869
  561W        W 1251   1.161   1.139   8.372
  562W        W 1252   0.264   1.611   2.656
  563W        W 1253   1.623   3.889   0.258
  564W        W 1254   2.994   0.722   0.754
  565W        W 1255   1.614   2.999   9.794
  566W        W 1256   3.454   1.610   2.163
  567W        W 1257   2.057   4.336   8.368
  568W        W 1258   2.061   1.163   2.659
  569W        W 1259   0.721   0.724   8.364
  570W        W 1260   4.796   2.086   2.621
  571W        W 1261   4.361   1.181   9.776
  572W        W 1262   2.063   3.440   8.828
  573W        W 1263   4.354   2.996   9.322
  574W        W 1264   2.061   2.091   8.846
  575W        W 1265   1.142   2.509   2.176
  576W        W 1266   0.242   2.061   0.756
  577W        W 1267   4.327   2.959   2.630
  578W        W 1268   4.785   1.613   2.171
  579W        W 1269   2.507   4.803   8.371
  580W        W 1270   0.719   4.817   9.327
  581W        W 1271   2.959   0.701   8.847
  582W        W 1272   3.424   1.171   2.187
  583W        W 1273   3.411   3.893   9.302
  584W        W 1274   4.333   2.055   2.619
  585W        W 1275   1.593   2.085   0.743
  586W        W 1276   3.413   2.078   2.163
  587W        W 1277   2.530   1.597   0.244
  588W        W 1278   1.595   2.978   0.261
  589W        W 1279   0.245   0.708   9.783
  590W        W 1280   2.509   1.604   8.365
  591W        W 1281   1.622   2.512   7.899
  592W        W 1282   3.875   3.414   7.890
  593W        W 1283   2.987   2.514   9.802
  594W        W 1284   2.973   2.983   1.698
  595W        W 1285   0.263   0.248   1.708
  596W        W 1286   3.453   3.876   8.850
  597W        W 1287   2.504   2.970   2.170
  598W        W 1288   0.705   4.352   0.739
  599W        W 1289   0.230   2.532   2.166
  600W        W 1290   1.137   1.613   7.886
  601W        W 1291   4.336   2.969   0.242
  602W        W 1292   3.892   1.592   7.415
  603W        W 1293   0.706   2.517   8.853
  604W        W 1294   1.613   2.071   8.841
  605W        W 1295   2.533   4.785   9.800
  606W        W 1296   3.892   0.255   9.807
  607W        W 1297   3.881   2.070   0.719
  608W        W 1298   3.907   1.143   8.342
  609W        W 1299   3.428   0.254   2.175
  610W        W 1300   2.506   0.721   9.795
  611W        W 1301   0.230   3.902   8.846
  612W        W 1302   4.340   3.908   9.288
  613W        W 1303   3.412   0.718   0.247
  614W        W 1304   4.774   2.056   1.709
  615W        W 1305   1.140   2.070   9.301
  616W        W 1306   1.182   3.901   8.813
  617W        W 1307   2.512   3.892   8.828
  618W        W 1308   3.434   3.897   7.866
  619W        W 1309   2.539   2.528   8.848
  620W        W 1310   2.972   3.864   2.658
  621W        W 1311   1.173   2.058   1.703
  622W        W 1312   2.966   0.243   9.317
  623W        W 1313   4.791   2.985   7.870
  624W        W 1314   3.444   2.981   0.717
  625W        W 1315   4.328   3.444   9.307
  626W        W 1316   0.714   2.065   9.772
  627W        W 1317   4.807   0.242   0.716
  628W        W 1318   1.156   3.418   0.759
  629W        W 1319   3.904   1.596   1.208
  630W        W 1320   4.774   1.154   7.885
  631W        W 1321   3.414   3.869   1.201
  632W        W 1322   4.334   2.532   9.784
  633W        W 1323   3.418   4.358   9.295
  634W        W 1324   4.344   0.727   8.851
  635W        W 1325   2.982   0.247   0.247
  636W        W 1326   2.987   4.798   0.749
  637W        W 1327   2.541   4.321   1.684
  638W        W 1328   3.452   0.263   8.837
  639W        W 1329   2.506   0.234   2.632
  640W        W 1330   4.350   1.614   2.634
  641W        W 1331   3.418   1.601   0.242
  642W        W 1332   2.082   0.707   2.148
  643W        W 1333   3.864   0.242   1.698
  644W        W 1334   4.788   3.884   2.180
  645W        W 1335   0.266   0.257   7.890
  646W        W 1336   2.521   4.346   7.883
  647W        W 1337   0.253   3.439   8.364
  648W        W 1338   2.051   4.813   1.683
  649W        W 1339   2.046   3.442   7.389
  650W        W 1340   3.908   2.974   7.866
  651W        W 1341   4.350   3.888   2.156
  652W        W 1342   0.254   0.242   8.852
  653W        W 1343   1.143   1.160   0.746
  654W        W 1344   2.053   4.329   0.734
  655W        W 1345   0.704   3.435   9.312
  656W        W 1346   0.273   3.427   2.620
  657W        W 1347   1.159   2.543   0.740
  658W        W 1348   2.511   2.074   8.365
  659W        W 1349   4.816   0.701   1.676
  660W        W 1350   1.605   3.887   1.689
  661W        W 1351   0.237   3.423   9.795
  662W        W 1352   2.994   0.263   2.160
  663W        W 1353   2.523   0.233   8.367
  664W        W 1354   3.872   3.440   2.660
  665W        W 1355   1.164   3.902   7.889
  666W        W 1356   2.955   4.776   8.350
  667W        W 1357   1.182   3.899   8.365
  668W        W 1358   2.522   4.357   2.629
  669W        W 1359   3.883   1.598   0.743
  670W        W 1360   4.784   2.076   0.246
  671W        W 1361   1.168   2.527   1.690
  672W        W 1362   2.538   2.078   0.760
  673W        W 1363   2.073   2.075   0.717
  674W        W 1364   2.086   3.896   1.215
  675W        W 1365   1.155   4.802   0.753
  676W        W 1366   1.629   0.721   1.216
  677W        W 1367   3.448   1.179   1.211
  678W        W 1368   0.715   2.068   8.356
  679W        W 1369   2.521   2.060   9.807
  680W        W 1370   1.177   4.778   8.347
  681W        W 1371   3.875   3.906   0.757
  682W        W 1372   3.433   0.256   0.252
  683W        W 1373   2.504   0.246   0.269
  684W        W 1374   1.619   0.259   0.274
  685W        W 1375   0.701   2.057   2.154
  686W        W 1376   1.178   0.267   1.217
  687W        W 1377   1.594   2.088   1.226
  688W        W 1378   1.165   2.959   8.373
  689W        W 1379   1.626   2.527   1.230
  690W        W 1380   4.320   4.787   8.335
  691W        W 1381   3.418   2.506   8.835
  692W        W 1382   2.519   1.601   7.412
  693W        W 1383   2.957   1.174   2.175
  694W        W 1384   2.990   4.330   8.359
  695W        W 1385   1.171   1.622   2.630
  696W        W 1386   2.063   3.897   9.326
  697W        W 1387   2.535   2.515   2.655
  698W        W 1388   2.998   1.166   9.322
  699W        W 1389   0.267   3.896   0.264
  700W        W 1390   3.888   3.900   2.152
  701W        W 1391   4.808   0.233   8.347
  702W        W 1392   0.268   4.788   7.860
  703W        W 1393   4.364   4.345   8.857
  704W        W 1394   4.808   3.416   8.344
  705W        W 1395   1.626   1.612   8.821
  706W        W 1396   0.233   3.881   0.761
  707W        W 1397   2.089   2.508   9.794
  708W        W 1398   1.150   0.690   8.835
  709W        W 1399   2.047   1.609   9.801
  710W        W 1400   4.779   2.537   9.311
  711W        W 1401   0.683   3.888   9.774
  712W        W 1402   2.508   2.961   1.236
  713W        W 1403   2.977   2.504   0.747
  714W        W 1404   0.694   2.994   8.815
  715W        W 1405   2.070   2.515   1.697
  716W        W 1406   0.705   1.629   9.804
  717W        W 1407   2.084   4.781   7.878
  718W        W 1408   2.091   1.141   8.817
  719W        W 1409   0.242   3.413   0.262
  720W        W 1410   2.072   0.247   9.304
  721W        W 1411   3.905   0.235   7.397
  722W        W 1412   0.689   1.600   0.725
  723W        W 1413   3.446   4.813   8.349
  724W        W 1414   4.352   4.348   2.189
  725W        W 1415   3.878   2.525   9.780
  726W        W 1416   3.435   4.800   9.305
  727W        W 1417   0.247   4.817   8.817
  728W        W 1418   4.773   0.270   2.147
  729W        W 1419   1.612   0.713   8.363
  730W        W 1420   2.057   0.259   1.233
  731W        W 1421   1.623   0.708   2.152
  732W        W 1422   2.523   2.070   2.164
  733W        W 1423   1.160   2.971   9.322
  734W        W 1424   1.169   1.609   0.739
  735W        W 1425   1.593   4.788   1.219
  736W        W 1426   4.337   0.695   1.205
  737W        W 1427   0.718   2.526   7.879
  738W        W 1428   3.439   0.257   8.340
  739W        W 1429   2.989   3.902   7.904
  740W        W 1430   1.629   0.727   8.818
  741W        W 1431   2.518   4.806   2.175
  742W        W 1432   0.240   4.331   0.248
  743W        W 1433   0.714   3.439   7.412
  744W        W 1434   0.233   4.805   2.176
  745W        W 1435   2.512   2.066   7.895
  746W        W 1436   1.162   4.347   9.804
  747W        W 1437   4.814   0.237   1.207
  748W        W 1438   3.871   2.997   9.797
  749W        W 1439   4.329   0.258   9.287
  750W        W 1440   4.789   3.446   9.311
  751W        W 1441   2.534   1.601   9.286
  752W        W 1442   4.363   3.903   8.813
  753W        W 1443   0.709   0.255   9.771
  754W        W 1444   2.996   2.047   9.782
  755W        W 1445   2.515   0.245   1.669
  756W        W 1446   4.783   4.360   1.686
  757W        W 1447   1.625   4.330   0.726
  758W        W 1448   3.446   0.239   0.745
  759W        W 1449   2.970   2.969   9.776
  760W        W 1450   1.136   0.239   2.161
  761W        W 1451   4.776   1.137   8.842
  762W        W 1452   1.139   4.810   9.308
  763W        W 1453   2.523   4.333   0.730
  764W        W 1454   4.780   0.251   8.825
  765W        W 1455   0.241   1.160   7.865
  766W        W 1456   4.800   3.902   0.268
  767W        W 1457   1.172   4.327   0.732
  768W        W 1458   4.360   1.151   0.245
  769W        W 1459   1.629   1.627   0.754
  770W        W 1460   2.996   4.356   1.206
  771W        W 1461   1.598   4.795   0.760
  772W        W 1462   1.618   2.058   1.705
  773W        W 1463   1.167   3.446   1.234
  774W        W 1464   2.521   4.326   8.817
  775W        W 1465   2.540   1.160   9.319
  776W        W 1466   2.048   2.067   1.208
  777W        W 1467   1.168   0.238   1.673
  778W        W 1468   0.719   2.957   0.278
  779W        W 1469   4.333   2.065   1.698
  780W        W 1470   3.866   2.076   2.152
  781W        W 1471   2.977   0.230   7.868
  782W        W 1472   0.259   2.047   8.379
  783W        W 1473   4.798   2.046   2.145
  784W        W 1474   4.345   3.415   7.881
  785W        W 1475   4.319   2.991   1.191
  786W        W 1476   4.778   3.907   1.679
  787W        W 1477   4.331   3.871   0.252
  788W        W 1478   3.897   0.727   7.403
  789W        W 1479   4.349   0.264   0.241
  790W        W 1480   2.978   0.252   8.358
  791W        W 1481   1.175   0.270   0.755
  792W        W 1482   0.229   1.596   8.371
  793W        W 1483   0.703   2.077   1.669
  794W        W 1484   3.415   3.442   2.167
  795W        W 1485   3.886   0.244   8.811
  796W        W 1486   3.422   4.808   8.853
  797W        W 1487   2.082   4.802   2.175
  798W        W 1488   3.448   2.082   7.865
  799W        W 1489   0.701   4.345   2.155
  800W        W 1490   0.272   3.909   2.170
  801W        W 1491   0.700   4.351   8.347
  802W        W 1492   3.415   1.609   8.352
  803W        W 1493   4.796   2.064   1.216
  804W        W 1494   3.423   0.233   9.312
  805W        W 1495   2.068   2.086   2.146
  806W        W 1496   1.158   3.412   1.703
  807W        W 1497   4.811   4.786   9.799
  808W        W 1498   1.165   3.871   1.192
  809W        W 1499   4.788   3.902   1.214
  810W        W 1500   0.705   4.362   0.271
  811W        W 1501   1.151   4.340   2.182
  812W        W 1502   3.420   4.794   1.201
  813W        W 1503   1.178   1.631   9.776
  814W        W 1504   1.173   3.410   9.287
  815W        W 1505   3.872   2.533   1.205
  816W        W 1506   0.252   0.244   0.262
  817W        W 1507   4.326   3.438   8.841
  818W        W 1508   2.513   2.966   0.257
  819W        W 1509   4.774   1.175   1.191
  820W        W 1510   0.248   2.955   9.797
  821W        W 1511   1.147   0.690   9.306
  822W        W 1512   3.454   4.320   0.753
  823W        W 1513   2.090   1.593   7.897
  824W        W 1514   2.958   2.989   1.206
  825W        W 1515   0.725   2.077   1.227
  826W        W 1516   2.537   2.540   7.393
  827W        W 1517   2.533   0.715   2.626
  828W        W 1518   2.526   4.362   1.199
  829W        W 1519   3.907   4.796   9.807
  830W        W 1520   4.794   1.626   9.799
  831W        W 1521   1.143   0.720   0.730
  832W        W 1522   2.065   1.603   0.752
  833W        W 1523   3.447   3.434   0.250
  834W        W 1524   4.359   3.897   0.725
  835W        W 1525   3.887   3.895   7.876
  836W        W 1526   2.503   3.453   2.646
  837W        W 1527   3.904   3.417   8.341
  838W        W 1528   1.163   0.248   0.251
  839W        W 1529   4.806   0.270   7.399
  840W        W 1530   0.714   0.723   9.321
  841W        W 1531   0.266   3.444   7.395
  842W        W 1532   0.708   2.082   7.872
  843W        W 1533   3.426   4.346   9.790
  844W        W 1534   0.268   2.992   7.883
  845W        W 1535   2.515   4.360   9.322
  846W        W 1536   2.509   0.722   9.309
  847W        W 1537   2.993   2.514   9.306
  848W        W 1538   1.591   3.878   0.722
  849W        W 1539   4.775   0.721   9.777
  850W        W 1540   1.624   0.720   9.298
  851W        W 1541   0.688   1.631   8.344
  852W        W 1542   2.534   2.972   7.871
  853W        W 1543   1.165   3.881   9.807
  854W        W 1544   4.359   1.630   2.167
  855W        W 1545   4.783   2.962   2.153
  856W        W 1546   0.684   4.816   2.164
  857W        W 1547   0.691   1.150   7.864
  858W        W 1548   4.800   3.416   7.866
  859W        W 1549   0.242   2.061   0.266
  860W        W 1550   2.064   2.525   0.253
  861W        W 1551   2.516   3.420   8.372
  862W        W 1552   1.626   3.452   7.891
  863W        W 1553   4.348   1.178   0.736
  864W        W 1554   2.062   3.869   9.771
  865W        W 1555   0.688   3.874   1.698
  866W        W 1556   2.967   2.053   8.376
  867W        W 1557   1.618   1.616   9.804
  868W        W 1558   2.990   0.686   1.194
  869W        W 1559   0.685   1.181   2.147
  870W        W 1560   3.454   4.796   0.721
  871W        W 1561   1.164   2.532   0.265
  872W        W 1562   2.089   4.350   9.305
  873W        W 1563   3.440   2.989   2.639
  874W        W 1564   2.522   1.597   0.718
  875W        W 1565   2.505   4.319   2.164
  876W        W 1566   0.708   0.269   8.833
  877W        W 1567   1.621   2.987   2.151
  878W        W 1568   3.440   2.995   8.815
  879W        W 1569   0.235   0.237   9.304
  880W        W 1570   2.074   2.956   8.831
  881W        W 1571   2.509   3.435   0.248
  882W        W 1572   3.909   1.152   7.415
  883W        W 1573   2.520   2.067   2.639
  884W        W 1574   2.970   2.990   0.755
  885W        W 1575   2.519   0.248   2.166
  886W        W 1576   2.962   1.138   0.735
  887W        W 1577   4.785   0.256   7.900
  888W        W 1578   2.999   1.600   2.629
  889W        W 1579   1.625   1.165   2.647
  890W        W 1580   1.148   1.161   9.328
  891W        W 1581   3.882   2.091   9.312
  892W        W 1582   4.348   2.502   8.816
  893W        W 1583   2.994   4.337   1.711
  894W        W 1584   1.600   0.262   2.654
  895W        W 1585   3.437   4.350   2.152
  896W        W 1586   3.900   4.784   9.305
  897W        W 1587   0.682   2.964   9.782
  898W        W 1588   2.537   0.698   8.851
  899W        W 1589   4.805   3.898   9.305
  900W        W 1590   1.171   0.256   8.811
  901W        W 1591   1.626   0.242   9.329
  902W        W 1592   2.518   1.180   7.864
  903W        W 1593   4.792   0.231   1.709
  904W        W 1594   3.900   1.617   0.271
  905W        W 1595   3.412   2.958   1.703
  906W        W 1596   0.229   4.341   1.238
  907W        W 1597   3.422   4.336   1.209
  908W        W 1598   3.892   2.076   1.199
  909W        W 1599   3.871   0.712   1.208
  910W        W 1600   0.268   2.976   0.762
  911W        W 1601   0.255   2.532   1.692
  912W        W 1602   1.159   3.419   8.817
  913W        W 1603   1.635   3.442   0.240
  914W        W 1604   4.326   3.899   8.335
  915W        W 1605   2.974   4.813   7.866
  916W        W 1606   1.632   2.515   9.308
  917W        W 1607   0.271   0.259   0.736
  918W        W 1608   0.249   1.172   1.674
  919W        W 1609   1.604   4.344   0.259
  920W        W 1610   3.884   1.141   0.716
  921W        W 1611   1.604   0.245   3.097
  922W        W 1612   0.245   2.960   0.254
  923W        W 1613   4.782   1.605   0.246
  924W        W 1614   2.084   2.062   9.292
  925W        W 1615   4.320   2.059   2.184
  926W        W 1616   1.602   3.414   9.308
  927W        W 1617   2.990   2.537   1.681
  928W        W 1618   4.343   2.073   9.801
  929W        W 1619   1.157   2.081   8.336
  930W        W 1620   4.776   2.996   8.824
  931W        W 1621   0.719   1.610   1.705
  932W        W 1622   4.352   1.142   8.349
  933W        W 1623   3.906   4.812   2.155
  934W        W 1624   3.449   4.775   7.395
  935W        W 1625   3.897   3.891   0.250
  936W        W 1626   2.981   1.621   2.149
  937W        W 1627   2.078   1.147   9.763
  938W        W 1628   0.712   4.817   0.745
  939W        W 1629   3.435   4.321   7.895
  940W        W 1630   3.875   4.780   1.192
  941W        W 1631   3.901   3.906   7.417
  942W        W 1632   3.428   2.524   2.633
  943W        W 1633   0.267   3.874   9.772
  944W        W 1634   2.073   0.231   7.869
  945W        W 1635   1.611   2.503   1.684
  946W        W 1636   2.977   1.591   0.280
  947W        W 1637   2.081   1.165   1.703
  948W        W 1638   2.534   3.903   1.236
  949W        W 1639   2.972   4.791   1.220
  950W        W 1640   2.052   4.792   8.841
  951W        W 1641   2.076   2.090   9.781
  952W        W 1642   4.331   2.059   7.868
  953W        W 1643   1.148   0.233   2.658
  954W        W 1644   1.609   0.242   2.189
  955W        W 1645   1.609   3.452   8.364
  956W        W 1646   1.168   1.627   1.672
  957W        W 1647   2.989   3.435   1.233
  958W        W 1648   3.450   1.159   9.774
  959W        W 1649   2.078   0.265   8.335
  960W        W 1650   1.154   4.327   9.323
  961W        W 1651   3.450   2.075   9.764
  962W        W 1652   3.892   0.722   9.807
  963W        W 1653   2.522   4.351   9.788
  964W        W 1654   3.868   1.601   2.160
  965W        W 1655   1.611   3.895   9.299
  966W        W 1656   1.181   4.813   8.842
  967W        W 1657   3.894   4.332   1.237
  968W        W 1658   4.323   1.631   1.674
  969W        W 1659   4.363   3.888   7.869
  970W        W 1660   1.611   0.715   2.645
  971W        W 1661   4.780   4.805   0.737
  972W        W 1662   0.255   3.424   1.689
  973W        W 1663   4.346   3.902   9.805
  974W        W 1664   0.682   2.967   1.687
  975W        W 1665   1.614   3.447   9.787
  976W        W 1666   2.088   4.339   9.778
  977W        W 1667   2.046   4.355   1.706
  978W        W 1668   0.268   1.620   9.784
  979W        W 1669   2.983   1.617   0.746
  980W        W 1670   4.814   1.154   0.245
  981W        W 1671   1.162   2.966   2.159
  982W        W 1672   4.774   0.709   0.756
  983W        W 1673   1.597   2.976   0.717
  984W        W 1674   4.345   3.420   2.168
  985W        W 1675   2.987   2.530   2.153
  986W        W 1676   2.510   4.817   1.674
  987W        W 1677   1.138   3.897   2.155
  988W        W 1678   4.816   4.349   0.732
  989W        W 1679   0.258   1.633   1.678
  990W        W 1680   1.632   3.900   9.768
  991W        W 1681   0.695   4.350   7.870
  992W        W 1682   0.715   2.538   8.371
  993W        W 1683   1.163   2.500   8.346
  994W        W 1684   0.245   3.422   2.174
  995W        W 1685   4.347   1.149   9.331
  996W        W 1686   4.793   3.866   9.776
  997W        W 1687   2.088   2.961   2.162
  998W        W 1688   0.683   3.449   8.353
  999W        W 1689   2.085   3.418   8.347
 1000W        W 1690   0.713   3.440   1.201
 1001W        W 1691   2.075   3.889   7.868
 1002W        W 1692   1.160   0.693   1.226
 1003W        W 1693   2.064   0.269   1.707
 1004W        W 1694   0.699   1.146   0.717
 1005W        W 1695   3.895   4.789   8.812
 1006W        W 1696   2.972   4.785   9.292
 1007W        W 1697   3.417   2.979   8.361
 1008W        W 1698   0.690   2.525   1.231
 1009W        W 1699   4.326   2.051   7.424
 1010W        W 1700   4.793   2.511   8.810
 1011W        W 1701   2.992   0.245   1.200
 1012W        W 1702   2.966   2.083   1.211
 1013W        W 1703   2.071   1.600   8.347
 1014W        W 1704   4.797   3.878   0.750
 1015W        W 1705   1.594   2.076   8.338
 1016W        W 1706   0.683   0.247   8.349
 1017W        W 1707   1.146   4.320   8.848
 1018W        W 1708   0.724   2.532   9.332
 1019W        W 1709   4.791   3.423   9.801
 1020W        W 1710   0.709   2.965   8.358
 1021W        W 1711   2.070   1.636   1.206
 1022W        W 1712   1.632   3.881   1.202
 1023W        W 1713   4.322   1.635   0.738
 1024W        W 1714   3.872   1.170   2.177
 1025W        W 1715   4.796   4.800   8.352
 1026W        W 1716   0.708   3.890   2.166
 1027W        W 1717   2.503   1.608   2.190
 1028W        W 1718   1.137   1.141   1.226
 1029W        W 1719   1.620   2.531   2.187
 1030W        W 1720   1.614   0.234   1.710
 1031W        W 1721   3.416   0.242   7.889
 1032W        W 1722   2.980   1.166   1.228
 1033W        W 1723   2.065   2.515   2.161
 1034W        W 1724   0.691   2.083   0.726
 1035W        W 1725   3.418   1.179   8.828
 1036W        W 1726   3.411   2.080   7.424
 1037W        W 1727   4.325   2.069   9.300
 1038W        W 1728   4.334   2.055   0.758
 1039W        W 1729   2.984   1.148   7.897
 1040W        W 1730   1.146   4.357   8.349
 1041W        W 1731   4.777   2.983   8.335
 1042W        W 1732   4.799   3.880   7.861
 1043W        W 1733   4.338   1.162   7.427
 1044W        W 1734   3.889   3.423   0.733
 1045W        W 1735   4.363   0.727   9.767
 1046W        W 1736   1.607   0.686   1.691
 1047W        W 1737   2.081   2.997   7.872
 1048W        W 1738   0.228   4.341   1.709
 1049W        W 1739   4.339   0.260   0.752
 1050W        W 1740   0.713   4.344   1.707
 1051W        W 1741   3.903   2.076   8.837
 1052W        W 1742   4.337   3.442   1.200
 1053W        W 1743   2.079   3.431   1.695
 1054W        W 1744   0.245   0.725   8.346
 1055W        W 1745   2.086   0.701   0.761
 1056W        W 1746   1.617   1.606   7.900
 1057W        W 1747   3.903   0.235   9.302
 1058W        W 1748   1.631   2.544   8.831
 1059W        W 1749   2.966   3.885   1.675
 1060W        W 1750   3.894   3.449   2.161
 1061W        W 1751   1.617   2.531   8.372
 1062W        W 1752   4.328   2.529   1.700
 1063W        W 1753   0.251   4.338   8.357
 1064W        W 1754   2.532   2.504   0.253
 1065W        W 1755   1.159   3.909   1.702
 1066W        W 1756   4.342   2.046   0.242
 1067W        W 1757   2.073   2.960   9.807
 1068W        W 1758   3.869   0.254   7.860
 1069W        W 1759   1.621   1.635   7.387
 1070W        W 1760   2.542   1.152   8.813
 1071W        W 1761   0.684   1.626   1.238
 1072W        W 1762   3.865   0.708   1.710
 1073W        W 1763   3.876   0.689   9.320
 1074W        W 1764   2.067   0.242   7.388
 1075W        W 1765   3.448   1.606   1.702
 1076W        W 1766   4.773   1.610   1.220
 1077W        W 1767   3.424   4.803   1.688
 1078W        W 1768   0.241   1.150   0.761
 1079W        W 1769   3.889   4.324   0.725
 1080W        W 1770   3.892   3.901   2.662
 1081W        W 1771   2.087   0.683   9.799
 1082W        W 1772   4.332   0.236   1.696
 1083W        W 1773   0.698   3.440   1.707
 1084W        W 1774   4.322   1.627   9.766
 1085W        W 1775   2.957   4.800   0.266
 1086W        W 1776   1.138   3.450   7.875
 1087W        W 1777   2.520   2.501   9.295
 1088W        W 1778   4.359   1.608   8.848
 1089W        W 1779   0.239   0.683   8.840
 1090W        W 1780   0.263   2.987   2.660
 1091W        W 1781   0.713   2.542   0.750
 1092W        W 1782   2.501   4.332   8.337
 1093W        W 1783   0.267   4.811   2.661
 1094W        W 1784   0.706   3.415   2.167
 1095W        W 1785   1.605   4.332   1.676
 1096W        W 1786   3.448   4.332   2.648
 1097W        W 1787   1.618   2.528   7.427
 1098W        W 1788   0.231   2.521   9.806
 1099W        W 1789   2.063   3.423   9.312
 1100W        W 1790   3.875   2.514   2.157
 1101W        W 1791   3.440   2.990   1.214
 1102W        W 1792   3.434   2.520   2.147
 1103W        W 1793   2.992   2.055   0.252
 1104W        W 1794   1.144   2.084   7.891
 1105W        W 1795   1.159   2.514   1.224
 1106W        W 1796   0.271   1.168   1.238
 1107W        W 1797   4.338   2.987   0.724
 1108W        W 1798   4.352   1.156   7.870
 1109W        W 1799   0.251   2.975   9.317
 1110W        W 1800   4.350   2.972   9.772
 1111W        W 1801   0.247   2.083   8.812
 1112W        W 1802   1.613   2.995   7.409
 1113W        W 1803   2.089   3.454   2.149
 1114W        W 1804   3.416   2.535   0.252
 1115W        W 1805   0.684   0.252   1.694
 1116W        W 1806   4.328   1.140   8.840
 1117W        W 1807   4.773   3.436   1.676
 1118W        W 1808   2.061   4.810   9.796
 1119W        W 1809   3.419   3.431   8.836
 1120W        W 1810   2.982   0.710   0.254
 1121W        W 1811   2.973   1.142   2.631
 1122W        W 1812   2.061   2.523   1.191
 1123W        W 1813   3.892   2.524   7.423
 1124W        W 1814   1.631   0.683   9.773
 1125W        W 1815   3.411   4.818   0.254
 1126W        W 1816   0.720   2.984   9.302
 1127W        W 1817   3.868   0.727   8.365
 1128W        W 1818   1.607   1.141   1.236
 1129W        W 1819   3.888   0.271   8.360
 1130W        W 1820   0.717   1.633   7.893
 1131W        W 1821   0.698   0.233   7.862
 1132W        W 1822   1.624   3.420   8.818
 1133W        W 1823   2.990   0.243   1.709
 1134W        W 1824   2.540   4.800   9.316
 1135W        W 1825   2.054   3.888   2.155
 1136W        W 1826   4.792   1.596   8.825
 1137W        W 1827   3.872   3.872   1.698
 1138W        W 1828   0.258   3.882   7.407
 1139W        W 1829   4.814   0.727   7.866
 1140W        W 1830   1.616   2.992   9.309
 1141W        W 1831   4.356   1.625   1.230
 1142W        W 1832   2.995   2.046   2.189
 1143W        W 1833   1.176   2.965   8.852
 1144W        W 1834   1.605   3.876   8.365
 1145W        W 1835   1.177   4.362   7.384
 1146W        W 1836   3.438   3.437   9.786
 1147W        W 1837   1.172   2.065   2.164
 1148W        W 1838   1.163   0.253   9.299
 1149W        W 1839   2.958   3.413   8.833
 1150W        W 1840   2.983   2.523   0.253
 1151W        W 1841   1.611   2.090   0.251
 1152W        W 1842   1.594   0.726   7.416
 1153W        W 1843   1.146   4.329   2.629
 1154W        W 1844   2.532   3.877   0.247
 1155W        W 1845   0.711   3.871   1.198
 1156W        W 1846   3.873   1.175   9.781
 1157W        W 1847   3.872   3.447   9.804
 1158W        W 1848   4.801   1.600   9.305
 1159W        W 1849   2.504   0.695   7.901
 1160W        W 1850   2.996   1.145   1.683
 1161W        W 1851   0.234   2.065   9.318
 1162W        W 1852   3.866   3.892   1.192
 1163W        W 1853   4.342   2.509   1.204
 1164W        W 1854   0.251   3.447   1.205
 1165W        W 1855   1.160   4.806   1.698
 1166W        W 1856   3.899   2.971   0.742
 1167W        W 1857   3.882   3.892   8.342
 1168W        W 1858   3.882   1.167   7.862
 1169W        W 1859   4.332   4.780   8.828
 1170W        W 1860   2.524   2.966   1.684
 1171W        W 1861   3.427   1.620   2.634
 1172W        W 1862   2.542   2.053   9.326
 1173W        W 1863   2.540   0.690   1.677
 1174W        W 1864   0.228   3.896   1.710
 1175W        W 1865   2.082   4.357   2.147
 1176W        W 1866   1.164   0.715   2.189
 1177W        W 1867   4.812   2.540   0.244
 1178W        W 1868   2.960   4.812   2.179
 1179W        W 1869   0.721   1.619   2.173
 1180W        W 1870   2.963   1.618   7.861
 1181W        W 1871   3.430   4.818   9.800
 1182W        W 1872   2.050   4.802   1.218
 1183W        W 1873   0.262   2.503   0.284
 1184W        W 1874   4.352   0.703   2.649
 1185W        W 1875   1.147   1.621   1.233
 1186W        W 1876   1.622   1.162   8.357
 1187W        W 1877   2.084   2.059   8.380
 1188W        W 1878   2.080   4.328   7.895
 1189W        W 1879   3.426   2.522   9.773
 1190W        W 1880   3.893   4.321   7.417
 1191W        W 1881   2.957   3.896   0.734
 1192W        W 1882   1.160   3.432   0.280
 1193W        W 1883   2.522   1.596   7.866
 1194W        W 1884   4.795   2.980   2.637
 1195W        W 1885   0.230   4.339   9.325
 1196W        W 1886   2.078   2.050   7.898
 1197W        W 1887   3.437   4.343   7.409
 1198W        W 1888   4.341   2.503   8.372
 1199W        W 1889   2.504   4.774   7.406
 1200W        W 1890   3.898   2.501   8.844
 1201W        W 1891   0.707   0.238   0.241
 1202W        W 1892   2.542   1.168   2.190
 1203W        W 1893   4.361   4.810   7.868
 1204W        W 1894   0.684   0.258   0.761
 1205W        W 1895   4.357   2.542   2.663
 1206W        W 1896   3.907   0.268   1.228
 1207W        W 1897   3.432   2.500   1.227
 1208W        W 1898   3.865   0.265   0.746
 1209W        W 1899   0.260   4.785   0.744
 1210W        W 1900   3.879   4.334   0.285
 1211W        W 1901   4.340   1.609   9.303
 1212W        W 1902   4.774   2.507   2.185
 1213W        W 1903   4.786   2.510   1.212
 1214W        W 1904   1.141   2.991   9.768
 1215W        W 1905   3.864   4.350   2.155
 1216W        W 1906   4.362   0.251   7.428
 1217W        W 1907   4.319   4.327   1.670
 1218W        W 1908   1.601   4.353   9.770
 1219W        W 1909   1.603   1.602   2.154
 1220W        W 1910   1.594   1.610   8.342
 1221W        W 1911   4.356   0.263   9.776
 1222W        W 1912   0.687   3.425   8.834
 1223W        W 1913   4.808   2.986   0.726
 1224W        W 1914   1.592   0.694   3.108
 1225W        W 1915   2.528   1.175   2.656
 1226W        W 1916   3.901   3.414   1.209
 1227W        W 1917   2.511   3.877   2.150
 1228W        W 1918   0.690   3.887   8.822
 1229W        W 1919   4.813   3.423   2.144
 1230W        W 1920   3.417   1.622   8.851
 1231W        W 1921   3.419   3.881   8.378
 1232W        W 1922   4.796   2.978   9.290
 1233W        W 1923   4.324   1.631   0.268
 1234W        W 1924   1.617   2.980   8.334
 1235W        W 1925   2.062   0.721   0.261
 1236W        W 1926   2.508   4.351   7.384
 1237W        W 1927   0.255   2.054   9.765
 1238W        W 1928   3.421   3.421   8.370
 1239W        W 1929   3.419   1.153   1.681
 1240W        W 1930   2.524   2.056   7.393
 1241W        W 1931   3.877   0.695   0.257
 1242W        W 1932   4.360   2.998   8.826
 1243W        W 1933   4.811   2.541   7.899
 1244W        W 1934   2.992   2.983   8.362
 1245W        W 1935   1.176   0.710   0.269
 1246W        W 1936   0.268   3.442   0.725
 1247W        W 1937   1.594   3.900   8.821
 1248W        W 1938   0.249   1.595   1.209
 1249W        W 1939   4.806   0.685   8.849
 1250W        W 1940   4.325   0.700   7.878
 1251W        W 1941   0.233   2.088   2.174
 1252W        W 1942   0.254   3.887   1.206
 1253W        W 1943   1.598   3.414   1.683
 1254W        W 1944   1.622   1.145   8.847
 1255W        W 1945   0.705   3.454   0.261
 1256W        W 1946   3.864   0.691   6.936
 1257W        W 1947   2.966   2.061   7.903
 1258W        W 1948   1.150   1.627   8.837
 1259W        W 1949   2.986   3.867   0.258
 1260W        W 1950   3.886   2.514   0.733
 1261W        W 1951   4.803   2.061   8.851
 1262W        W 1952   4.784   1.175   2.186
 1263W        W 1953   1.592   0.253   0.728
 1264W        W 1954   0.697   0.720   1.201
 1265W        W 1955   1.159   2.077   8.829
 1266W        W 1956   3.415   0.688   2.167
 1267W        W 1957   4.782   3.899   8.836
 1268W        W 1958   2.542   0.236   9.773
 1269W        W 1959   3.447   3.892   2.182
 1270W        W 1960   4.357   2.972   3.108
 1271W        W 1961   4.774   4.810   9.324
 1272W        W 1962   2.502   3.889   1.672
 1273W        W 1963   4.812   2.971   0.240
 1274W        W 1964   1.604   4.786   9.766
 1275W        W 1965   0.713   4.355   9.801
 1276W        W 1966   2.959   3.453   0.246
 1277W        W 1967   1.158   0.705   8.360
 1278W        W 1968   2.066   3.869   8.814
 1279W        W 1969   1.181   0.256   6.915
 1280W        W 1970   2.056   1.139   1.203
 1281W        W 1971   2.078   4.776   0.250
 1282W        W 1972   2.527   0.234   0.752
 1283W        W 1973   1.169   2.052   1.211
 1284W        W 1974   2.070   2.519   8.835
 1285W        W 1975   2.979   0.693   8.361
 1286W        W 1976   2.544   4.815   2.645
 1287W        W 1977   2.066   1.629   9.323
 1288W        W 1978   0.263   1.620   0.260
 1289W        W 1979   2.991   3.450   7.903
 1290W        W 1980   4.329   0.725   0.246
 1291W        W 1981   0.699   1.599   0.262
 1292W        W 1982   3.874   3.897   8.837
 1293W        W 1983   3.886   4.342   8.819
 1294W        W 1984   4.790   1.595   7.860
 1295W        W 1985   4.325   4.354   8.378
 1296W        W 1986   3.412   3.413   1.238
 1297W        W 1987   2.971   1.600   1.693
 1298W        W 1988   3.430   0.686   7.393
 1299W        W 1989   0.249   1.156   2.189
 1300W        W 1990   4.812   2.966   1.707
 1301W        W 1991   1.153   2.526   8.818
 1302W        W 1992   3.888   2.083   1.711
 1303W        W 1993   1.166   2.540   7.418
 1304W        W 1994   3.879   1.145   8.824
 1305W        W 1995   1.180   2.070   9.783
 1306W        W 1996   2.074   2.074   1.675
 1307W        W 1997   1.153   2.071   0.278
 1308W        W 1998   0.689   0.682   9.807
 1309W        W 1999   2.524   3.904   8.376
 1310W        W 2000   2.510   2.504   1.691
 1311W        W 2001   2.053   0.265   0.732
 1312W        W 2002   1.629   2.512   9.801
 1313W        W 2003   3.879   0.688   2.176
 1314W        W 2004   3.430   3.889   0.761
 1315W        W 2005   2.075   1.168   2.152
 1316W        W 2006   4.344   0.257   8.336
 1317W        W 2007   3.883   4.787   7.878
 1318W        W 2008   3.441   4.320   8.836
 1319W        W 2009   4.794   0.685   7.399
 1320W        W 2010   1.153   3.886   0.749
 1321W        W 2011   2.514   2.536   2.151
 1322W        W 2012   1.600   2.081   9.314
 1323W        W 2013   1.138   0.727   9.785
 1324W        W 2014   0.690   3.885   9.292
 1325W        W 2015   3.426   0.710   8.375
 1326W        W 2016   2.545   1.178   1.672
 1327W        W 2017   1.164   3.416   9.807
 1328W        W 2018   2.539   2.516   0.734
 1329W        W 2019   0.712   0.250   9.329
 1330W        W 2020   1.621   4.775   1.668
 1331W        W 2021   2.524   1.160   0.276
 1332W        W 2022   2.538   1.178   9.809
 1333W        W 2023   0.724   1.176   1.235
 1334W        W 2024   1.618   1.145   0.257
 1335W        W 2025   3.878   4.801   8.343
 1336W        W 2026   3.436   2.964   0.265
 1337W        W 2027   0.263   0.255   9.809
 1338W        W 2028   2.070   1.142   7.883
 1339W        W 2029   1.623   1.167   9.296
 1340W        W 2030   3.873   2.061   8.374
 1341W        W 2031   2.508   3.424   1.691
 1342W        W 2032   0.696   4.330   9.307
 1343W        W 2033   2.531   0.712   7.418
 1344W        W 2034   2.999   2.501   8.815
 1345W        W 2035   2.529   3.433   7.871
 1346W        W 2036   1.161   3.410   7.408
 1347W        W 2037   0.725   1.168   1.702
 1348W        W 2038   2.990   4.791   9.764
 1349W        W 2039   4.327   1.609   8.346
 1350W        W 2040   2.506   2.972   9.763
 1351W        W 2041   2.535   2.966   8.354
 1352W        W 2042   3.889   3.413   1.713
 1353W        W 2043   3.868   4.787   0.270
 1354W        W 2044   3.413   2.065   8.346
 1355W        W 2045   0.261   1.594   9.301
 1356W        W 2046   2.541   1.170   0.737
 1357W        W 2047   2.991   1.139   9.783
 1358W        W 2048   0.702   1.594   9.303
 1359W        W 2049   3.454   4.344   1.703
 1360W        W 2050   2.540   0.263   9.295
 1361W        W 2051   1.612   0.233   8.366
 1362W        W 2052   1.179   0.256   9.773
 1363W        W 2053   3.864   3.876   9.778
 1364W        W 2054   3.433   2.957   2.151
 1365W        W 2055   3.867   4.341   9.804
 1366W        W 2056   0.698   0.726   0.264
 1367W        W 2057   1.157   1.164   0.264
 1368W        W 2058   0.694   4.781   8.356
 1369W        W 2059   2.960   4.351   0.269
 1370W        W 2060   4.321   2.955   1.700
 1371W        W 2061   1.606   1.156   7.868
 1372W        W 2062   3.427   3.892   7.398
 1373W        W 2063   2.978   0.696   7.866
 1374W        W 2064   1.625   4.354   2.175
 1375W        W 2065   4.328   2.970   7.868
 1376W        W 2066   1.161   0.726   2.621
 1377W        W 2067   4.774   1.601   1.669
 1378W        W 2068   1.602   4.798   2.188
 1379W        W 2069   1.602   1.627   1.685
 1380W        W 2070   3.425   1.628   7.390
 1381W        W 2071   0.718   3.900   8.377
 1382W        W 2072   2.994   2.050   9.293
 1383W        W 2073   2.541   3.442   9.773
 1384W        W 2074   3.425   0.256   9.796
 1385W        W 2075   1.615   3.413   1.208
 1386W        W 2076   2.052   2.986   0.730
 1387W        W 2077   1.145   2.051   7.417
 1388W        W 2078   2.543   0.248   1.213
 1389W        W 2079   0.273   1.605   7.900
 1390W        W 2080   1.624   4.778   8.820
 1391W        W 2081   2.079   1.617   2.645
 1392W        W 2082   2.085   0.710   1.704
 1393W        W 2083   2.523   2.999   0.716
 1394W        W 2084   4.790   2.528   8.369
 1395W        W 2085   3.417   2.956   9.788
 1396W        W 2086   1.628   0.266   8.821
 1397W        W 2087   4.322   4.817   0.276
 1398W        W 2088   2.984   3.883   9.296
 1399W        W 2089   3.421   3.450   9.320
 1400W        W 2090   3.901   0.716   7.899
 1401W        W 2091   1.155   1.628   0.285
 1402W        W 2092   1.149   3.899   9.313
   5.00000   5.00000  10.00000
