INSANE! Membrane UpperLeaflet>CER6:POPC=30.0:70.0 LowerLeaflet>CER6:POPC=30.0:70.0
 2092
    1CER6   NOH    1   1.906   0.374   6.650
    1CER6    OH    2   1.934   0.569   6.350
    1CER6   GLA    3   2.133   0.452   6.350
    1CER6   GLB    4   2.031   0.501   6.350
    1CER6   C1A    5   2.149   0.445   6.050
    1CER6   C2A    6   2.096   0.477   5.750
    1CER6   C1B    7   1.882   0.516   5.450
    1CER6   C2B    8   1.896   0.573   5.150
    2CER6   NOH    9   1.401   2.334   6.650
    2CER6    OH   10   1.540   2.250   6.350
    2CER6   GLA   11   1.302   2.164   6.350
    2CER6   GLB   12   1.437   2.222   6.350
    2CER6   C1A   13   1.266   2.120   6.050
    2CER6   C2A   14   1.267   2.116   5.750
    2CER6   C1B   15   1.515   2.303   5.450
    2CER6   C2B   16   1.503   2.263   5.150
    3CER6   NOH   17   4.417   0.284   6.650
    3CER6    OH   18   4.371   0.389   6.350
    3CER6   GLA   19   4.606   0.483   6.350
    3CER6   GLB   20   4.507   0.474   6.350
    3CER6   C1A   21   4.620   0.483   6.050
    3CER6   C2A   22   4.586   0.419   5.750
    3CER6   C1B   23   4.420   0.355   5.450
    3CER6   C2B   24   4.412   0.398   5.150
    4CER6   NOH   25   3.803   1.622   6.650
    4CER6    OH   26   3.980   1.508   6.350
    4CER6   GLA   27   3.817   1.302   6.350
    4CER6   GLB   28   3.914   1.365   6.350
    4CER6   C1A   29   3.793   1.279   6.050
    4CER6   C2A   30   3.828   1.315   5.750
    4CER6   C1B   31   3.907   1.561   5.450
    4CER6   C2B   32   3.902   1.506   5.150
    5CER6   NOH   33   2.814   3.175   6.650
    5CER6    OH   34   2.897   3.198   6.350
    5CER6   GLA   35   2.981   2.966   6.350
    5CER6   GLB   36   2.975   3.119   6.350
    5CER6   C1A   37   2.972   2.989   6.050
    5CER6   C2A   38   2.928   3.011   5.750
    5CER6   C1B   39   2.986   3.234   5.450
    5CER6   C2B   40   2.964   3.208   5.150
    6CER6   NOH   41   0.699   3.682   6.650
    6CER6    OH   42   0.626   3.597   6.350
    6CER6   GLA   43   0.429   3.833   6.350
    6CER6   GLB   44   0.558   3.720   6.350
    6CER6   C1A   45   0.457   3.756   6.050
    6CER6   C2A   46   0.442   3.812   5.750
    6CER6   C1B   47   0.548   3.559   5.450
    6CER6   C2B   48   0.613   3.541   5.150
    7CER6   NOH   49   1.592   2.924   6.650
    7CER6    OH   50   1.516   2.782   6.350
    7CER6   GLA   51   1.350   3.003   6.350
    7CER6   GLB   52   1.373   2.935   6.350
    7CER6   C1A   53   1.346   2.931   6.050
    7CER6   C2A   54   1.312   2.932   5.750
    7CER6   C1B   55   1.489   2.822   5.450
    7CER6   C2B   56   1.532   2.772   5.150
    8CER6   NOH   57   3.981   4.899   6.650
    8CER6    OH   58   3.978   4.737   6.350
    8CER6   GLA   59   3.782   4.584   6.350
    8CER6   GLB   60   3.911   4.667   6.350
    8CER6   C1A   61   3.757   4.667   6.050
    8CER6   C2A   62   3.849   4.596   5.750
    8CER6   C1B   63   4.050   4.791   5.450
    8CER6   C2B   64   4.008   4.730   5.150
    9CER6   NOH   65   3.931   4.004   6.650
    9CER6    OH   66   3.988   3.917   6.350
    9CER6   GLA   67   3.783   3.793   6.350
    9CER6   GLB   68   3.912   3.855   6.350
    9CER6   C1A   69   3.799   3.755   6.050
    9CER6   C2A   70   3.844   3.808   5.750
    9CER6   C1B   71   4.068   3.870   5.450
    9CER6   C2B   72   4.058   3.872   5.150
   10CER6   NOH   73   1.497   0.718   6.650
   10CER6    OH   74   1.494   0.534   6.350
   10CER6   GLA   75   1.346   0.499   6.350
   10CER6   GLB   76   1.391   0.516   6.350
   10CER6   C1A   77   1.252   0.456   6.050
   10CER6   C2A   78   1.282   0.462   5.750
   10CER6   C1B   79   1.495   0.610   5.450
   10CER6   C2B   80   1.579   0.573   5.150
   11POPC   NC3   81   0.503   2.131   6.950
   11POPC   PO4   82   0.453   2.090   6.650
   11POPC   GL1   83   0.471   2.109   6.350
   11POPC   GL2   84   0.539   2.215   6.350
   11POPC   C1A   85   0.445   2.105   6.050
   11POPC   D2A   86   0.436   2.140   5.750
   11POPC   C3A   87   0.489   2.150   5.450
   11POPC   C4A   88   0.428   2.125   5.150
   11POPC   C1B   89   0.519   2.345   6.050
   11POPC   C2B   90   0.486   2.353   5.750
   11POPC   C3B   91   0.502   2.371   5.450
   11POPC   C4B   92   0.492   2.357   5.150
   12POPC   NC3   93   3.796   2.126   6.950
   12POPC   PO4   94   3.772   2.148   6.650
   12POPC   GL1   95   3.756   2.116   6.350
   12POPC   GL2   96   3.935   2.066   6.350
   12POPC   C1A   97   3.814   2.128   6.050
   12POPC   D2A   98   3.792   2.182   5.750
   12POPC   C3A   99   3.753   2.175   5.450
   12POPC   C4A  100   3.793   2.170   5.150
   12POPC   C1B  101   4.057   2.057   6.050
   12POPC   C2B  102   4.068   1.993   5.750
   12POPC   C3B  103   4.060   2.051   5.450
   12POPC   C4B  104   3.983   2.048   5.150
   13POPC   NC3  105   3.799   3.003   6.950
   13POPC   PO4  106   3.775   2.946   6.650
   13POPC   GL1  107   3.779   2.987   6.350
   13POPC   GL2  108   3.710   3.030   6.350
   13POPC   C1A  109   3.849   2.937   6.050
   13POPC   D2A  110   3.813   2.986   5.750
   13POPC   C3A  111   3.804   2.964   5.450
   13POPC   C4A  112   3.782   2.954   5.150
   13POPC   C1B  113   3.595   3.149   6.050
   13POPC   C2B  114   3.586   3.133   5.750
   13POPC   C3B  115   3.631   3.112   5.450
   13POPC   C4B  116   3.581   3.150   5.150
   14POPC   NC3  117   4.652   3.810   6.950
   14POPC   PO4  118   4.630   3.839   6.650
   14POPC   GL1  119   4.617   3.831   6.350
   14POPC   GL2  120   4.733   3.894   6.350
   14POPC   C1A  121   4.657   3.757   6.050
   14POPC   D2A  122   4.665   3.785   5.750
   14POPC   C3A  123   4.673   3.816   5.450
   14POPC   C4A  124   4.638   3.791   5.150
   14POPC   C1B  125   4.823   3.975   6.050
   14POPC   C2B  126   4.857   3.957   5.750
   14POPC   C3B  127   4.805   3.970   5.450
   14POPC   C4B  128   4.858   3.921   5.150
   15POPC   NC3  129   4.670   1.290   6.950
   15POPC   PO4  130   4.611   1.287   6.650
   15POPC   GL1  131   4.588   1.322   6.350
   15POPC   GL2  132   4.760   1.288   6.350
   15POPC   C1A  133   4.592   1.348   6.050
   15POPC   D2A  134   4.659   1.257   5.750
   15POPC   C3A  135   4.647   1.338   5.450
   15POPC   C4A  136   4.608   1.313   5.150
   15POPC   C1B  137   4.851   1.230   6.050
   15POPC   C2B  138   4.882   1.164   5.750
   15POPC   C3B  139   4.904   1.181   5.450
   15POPC   C4B  140   4.826   1.202   5.150
   16POPC   NC3  141   2.945   2.147   6.950
   16POPC   PO4  142   2.961   2.126   6.650
   16POPC   GL1  143   2.972   2.093   6.350
   16POPC   GL2  144   3.008   2.285   6.350
   16POPC   C1A  145   3.014   2.167   6.050
   16POPC   D2A  146   2.923   2.131   5.750
   16POPC   C3A  147   3.013   2.099   5.450
   16POPC   C4A  148   3.007   2.100   5.150
   16POPC   C1B  149   2.993   2.386   6.050
   16POPC   C2B  150   3.043   2.371   5.750
   16POPC   C3B  151   2.975   2.337   5.450
   16POPC   C4B  152   2.986   2.335   5.150
   17POPC   NC3  153   2.134   3.825   6.950
   17POPC   PO4  154   2.101   3.774   6.650
   17POPC   GL1  155   2.172   3.845   6.350
   17POPC   GL2  156   2.170   3.888   6.350
   17POPC   C1A  157   2.122   3.775   6.050
   17POPC   D2A  158   2.159   3.821   5.750
   17POPC   C3A  159   2.127   3.797   5.450
   17POPC   C4A  160   2.147   3.775   5.150
   17POPC   C1B  161   2.120   4.055   6.050
   17POPC   C2B  162   2.112   4.089   5.750
   17POPC   C3B  163   2.179   4.044   5.450
   17POPC   C4B  164   2.183   4.047   5.150
   18POPC   NC3  165   1.337   3.763   6.950
   18POPC   PO4  166   1.266   3.846   6.650
   18POPC   GL1  167   1.317   3.839   6.350
   18POPC   GL2  168   1.195   3.776   6.350
   18POPC   C1A  169   1.269   3.797   6.050
   18POPC   D2A  170   1.305   3.793   5.750
   18POPC   C3A  171   1.295   3.796   5.450
   18POPC   C4A  172   1.347   3.783   5.150
   18POPC   C1B  173   1.070   3.678   6.050
   18POPC   C2B  174   1.080   3.648   5.750
   18POPC   C3B  175   1.043   3.658   5.450
   18POPC   C4B  176   1.092   3.687   5.150
   19POPC   NC3  177   2.151   2.966   6.950
   19POPC   PO4  178   2.118   2.967   6.650
   19POPC   GL1  179   2.104   2.974   6.350
   19POPC   GL2  180   2.011   3.008   6.350
   19POPC   C1A  181   2.085   2.978   6.050
   19POPC   D2A  182   2.165   2.993   5.750
   19POPC   C3A  183   2.183   3.002   5.450
   19POPC   C4A  184   2.089   2.979   5.150
   19POPC   C1B  185   1.915   3.015   6.050
   19POPC   C2B  186   1.906   3.078   5.750
   19POPC   C3B  187   1.867   3.064   5.450
   19POPC   C4B  188   1.866   3.003   5.150
   20POPC   NC3  189   1.319   1.275   6.950
   20POPC   PO4  190   1.291   1.293   6.650
   20POPC   GL1  191   1.312   1.299   6.350
   20POPC   GL2  192   1.201   1.351   6.350
   20POPC   C1A  193   1.269   1.326   6.050
   20POPC   D2A  194   1.304   1.296   5.750
   20POPC   C3A  195   1.294   1.334   5.450
   20POPC   C4A  196   1.330   1.281   5.150
   20POPC   C1B  197   1.101   1.294   6.050
   20POPC   C2B  198   1.007   1.280   5.750
   20POPC   C3B  199   1.060   1.301   5.450
   20POPC   C4B  200   1.050   1.297   5.150
   21POPC   NC3  201   4.652   2.167   6.950
   21POPC   PO4  202   4.652   2.110   6.650
   21POPC   GL1  203   4.627   2.168   6.350
   21POPC   GL2  204   4.555   2.226   6.350
   21POPC   C1A  205   4.651   2.176   6.050
   21POPC   D2A  206   4.653   2.168   5.750
   21POPC   C3A  207   4.641   2.132   5.450
   21POPC   C4A  208   4.594   2.153   5.150
   21POPC   C1B  209   4.378   2.223   6.050
   21POPC   C2B  210   4.417   2.272   5.750
   21POPC   C3B  211   4.439   2.226   5.450
   21POPC   C4B  212   4.420   2.224   5.150
   22POPC   NC3  213   0.469   4.636   6.950
   22POPC   PO4  214   0.437   4.652   6.650
   22POPC   GL1  215   0.472   4.612   6.350
   22POPC   GL2  216   0.570   4.608   6.350
   22POPC   C1A  217   0.497   4.623   6.050
   22POPC   D2A  218   0.420   4.628   5.750
   22POPC   C3A  219   0.418   4.625   5.450
   22POPC   C4A  220   0.456   4.604   5.150
   22POPC   C1B  221   0.754   4.720   6.050
   22POPC   C2B  222   0.760   4.663   5.750
   22POPC   C3B  223   0.695   4.715   5.450
   22POPC   C4B  224   0.675   4.663   5.150
   23POPC   NC3  225   0.493   3.011   6.950
   23POPC   PO4  226   0.463   2.999   6.650
   23POPC   GL1  227   0.417   2.972   6.350
   23POPC   GL2  228   0.553   2.988   6.350
   23POPC   C1A  229   0.442   2.999   6.050
   23POPC   D2A  230   0.501   2.951   5.750
   23POPC   C3A  231   0.477   2.959   5.450
   23POPC   C4A  232   0.433   2.939   5.150
   23POPC   C1B  233   0.686   2.940   6.050
   23POPC   C2B  234   0.699   2.916   5.750
   23POPC   C3B  235   0.764   2.900   5.450
   23POPC   C4B  236   0.680   2.945   5.150
   24POPC   NC3  237   2.952   0.509   6.950
   24POPC   PO4  238   2.966   0.418   6.650
   24POPC   GL1  239   2.964   0.484   6.350
   24POPC   GL2  240   2.970   0.367   6.350
   24POPC   C1A  241   2.949   0.516   6.050
   24POPC   D2A  242   2.978   0.511   5.750
   24POPC   C3A  243   2.981   0.425   5.450
   24POPC   C4A  244   3.016   0.418   5.150
   24POPC   C1B  245   2.851   0.257   6.050
   24POPC   C2B  246   2.852   0.244   5.750
   24POPC   C3B  247   2.875   0.280   5.450
   24POPC   C4B  248   2.851   0.212   5.150
   25POPC   NC3  249   2.086   4.621   6.950
   25POPC   PO4  250   2.084   4.647   6.650
   25POPC   GL1  251   2.134   4.677   6.350
   25POPC   GL2  252   2.103   4.742   6.350
   25POPC   C1A  253   2.122   4.596   6.050
   25POPC   D2A  254   2.102   4.671   5.750
   25POPC   C3A  255   2.177   4.663   5.450
   25POPC   C4A  256   2.145   4.598   5.150
   25POPC   C1B  257   2.138   4.867   6.050
   25POPC   C2B  258   2.186   4.882   5.750
   25POPC   C3B  259   2.141   4.917   5.450
   25POPC   C4B  260   2.121   4.873   5.150
   26POPC   NC3  261   2.120   2.145   6.950
   26POPC   PO4  262   2.148   2.115   6.650
   26POPC   GL1  263   2.134   2.149   6.350
   26POPC   GL2  264   2.191   1.967   6.350
   26POPC   C1A  265   2.132   2.157   6.050
   26POPC   D2A  266   2.172   2.150   5.750
   26POPC   C3A  267   2.110   2.098   5.450
   26POPC   C4A  268   2.130   2.146   5.150
   26POPC   C1B  269   2.136   1.918   6.050
   26POPC   C2B  270   2.189   1.881   5.750
   26POPC   C3B  271   2.141   1.921   5.450
   26POPC   C4B  272   2.143   1.885   5.150
   27POPC   NC3  273   1.289   4.662   6.950
   27POPC   PO4  274   1.303   4.666   6.650
   27POPC   GL1  275   1.292   4.596   6.350
   27POPC   GL2  276   1.437   4.526   6.350
   27POPC   C1A  277   1.278   4.624   6.050
   27POPC   D2A  278   1.313   4.672   5.750
   27POPC   C3A  279   1.277   4.656   5.450
   27POPC   C4A  280   1.277   4.621   5.150
   27POPC   C1B  281   1.460   4.439   6.050
   27POPC   C2B  282   1.530   4.502   5.750
   27POPC   C3B  283   1.453   4.443   5.450
   27POPC   C4B  284   1.545   4.448   5.150
   28POPC   NC3  285   0.516   1.257   6.950
   28POPC   PO4  286   0.447   1.275   6.650
   28POPC   GL1  287   0.496   1.293   6.350
   28POPC   GL2  288   0.438   1.218   6.350
   28POPC   C1A  289   0.459   1.303   6.050
   28POPC   D2A  290   0.456   1.284   5.750
   28POPC   C3A  291   0.516   1.259   5.450
   28POPC   C4A  292   0.488   1.343   5.150
   28POPC   C1B  293   0.353   1.100   6.050
   28POPC   C2B  294   0.317   1.128   5.750
   28POPC   C3B  295   0.334   1.057   5.450
   28POPC   C4B  296   0.333   1.064   5.150
   29POPC   NC3  297   4.633   2.955   6.950
   29POPC   PO4  298   4.595   2.972   6.650
   29POPC   GL1  299   4.584   2.926   6.350
   29POPC   GL2  300   4.559   2.871   6.350
   29POPC   C1A  301   4.636   2.927   6.050
   29POPC   D2A  302   4.632   2.943   5.750
   29POPC   C3A  303   4.681   2.928   5.450
   29POPC   C4A  304   4.619   2.982   5.150
   29POPC   C1B  305   4.526   2.708   6.050
   29POPC   C2B  306   4.549   2.707   5.750
   29POPC   C3B  307   4.547   2.730   5.450
   29POPC   C4B  308   4.549   2.777   5.150
   30POPC   NC3  309   2.988   3.815   6.950
   30POPC   PO4  310   2.966   3.782   6.650
   30POPC   GL1  311   2.970   3.849   6.350
   30POPC   GL2  312   3.003   3.715   6.350
   30POPC   C1A  313   3.008   3.849   6.050
   30POPC   D2A  314   3.013   3.778   5.750
   30POPC   C3A  315   2.977   3.814   5.450
   30POPC   C4A  316   3.012   3.829   5.150
   30POPC   C1B  317   3.095   3.603   6.050
   30POPC   C2B  318   3.101   3.637   5.750
   30POPC   C3B  319   3.136   3.659   5.450
   30POPC   C4B  320   3.101   3.635   5.150
   31POPC   NC3  321   4.625   4.644   6.950
   31POPC   PO4  322   4.591   4.586   6.650
   31POPC   GL1  323   4.599   4.627   6.350
   31POPC   GL2  324   4.784   4.668   6.350
   31POPC   C1A  325   4.676   4.585   6.050
   31POPC   D2A  326   4.650   4.651   5.750
   31POPC   C3A  327   4.627   4.660   5.450
   31POPC   C4A  328   4.678   4.639   5.150
   31POPC   C1B  329   4.876   4.744   6.050
   31POPC   C2B  330   4.865   4.739   5.750
   31POPC   C3B  331   4.890   4.692   5.450
   31POPC   C4B  332   4.851   4.711   5.150
   32POPC   NC3  333   0.445   0.497   6.950
   32POPC   PO4  334   0.419   0.455   6.650
   32POPC   GL1  335   0.507   0.457   6.350
   32POPC   GL2  336   0.492   0.545   6.350
   32POPC   C1A  337   0.456   0.445   6.050
   32POPC   D2A  338   0.492   0.419   5.750
   32POPC   C3A  339   0.434   0.431   5.450
   32POPC   C4A  340   0.460   0.470   5.150
   32POPC   C1B  341   0.624   0.626   6.050
   32POPC   C2B  342   0.572   0.652   5.750
   32POPC   C3B  343   0.655   0.658   5.450
   32POPC   C4B  344   0.642   0.666   5.150
   33POPC   NC3  345   2.161   1.288   6.950
   33POPC   PO4  346   2.107   1.257   6.650
   33POPC   GL1  347   2.149   1.350   6.350
   33POPC   GL2  348   2.193   1.376   6.350
   33POPC   C1A  349   2.158   1.276   6.050
   33POPC   D2A  350   2.178   1.298   5.750
   33POPC   C3A  351   2.183   1.320   5.450
   33POPC   C4A  352   2.155   1.293   5.150
   33POPC   C1B  353   2.341   1.480   6.050
   33POPC   C2B  354   2.384   1.455   5.750
   33POPC   C3B  355   2.382   1.468   5.450
   33POPC   C4B  356   2.343   1.437   5.150
   34POPC   NC3  357   2.933   1.289   6.950
   34POPC   PO4  358   3.015   1.311   6.650
   34POPC   GL1  359   3.010   1.291   6.350
   34POPC   GL2  360   3.059   1.374   6.350
   34POPC   C1A  361   3.012   1.268   6.050
   34POPC   D2A  362   2.954   1.251   5.750
   34POPC   C3A  363   2.950   1.326   5.450
   34POPC   C4A  364   2.949   1.350   5.150
   34POPC   C1B  365   3.148   1.459   6.050
   34POPC   C2B  366   3.132   1.424   5.750
   34POPC   C3B  367   3.128   1.472   5.450
   34POPC   C4B  368   3.186   1.435   5.150
   35POPC   NC3  369   2.988   4.631   6.950
   35POPC   PO4  370   2.956   4.667   6.650
   35POPC   GL1  371   2.918   4.608   6.350
   35POPC   GL2  372   3.082   4.577   6.350
   35POPC   C1A  373   2.962   4.630   6.050
   35POPC   D2A  374   2.925   4.643   5.750
   35POPC   C3A  375   2.981   4.605   5.450
   35POPC   C4A  376   2.972   4.626   5.150
   35POPC   C1B  377   3.171   4.621   6.050
   35POPC   C2B  378   3.199   4.641   5.750
   35POPC   C3B  379   3.226   4.622   5.450
   35POPC   C4B  380   3.180   4.605   5.150
   36CER6   NOH  381   3.653   2.393   3.350
   36CER6    OH  382   3.809   2.331   3.650
   36CER6   GLA  383   3.843   2.105   3.650
   36CER6   GLB  384   3.746   2.263   3.650
   36CER6   C1A  385   3.813   2.089   3.950
   36CER6   C2A  386   3.794   2.156   4.250
   36CER6   C1B  387   3.748   2.390   4.550
   36CER6   C2B  388   3.766   2.384   4.850
   37CER6   NOH  389   2.836   1.514   3.350
   37CER6    OH  390   2.980   1.519   3.650
   37CER6   GLA  391   2.979   1.301   3.650
   37CER6   GLB  392   2.956   1.399   3.650
   37CER6   C1A  393   2.990   1.250   3.950
   37CER6   C2A  394   2.922   1.273   4.250
   37CER6   C1B  395   2.962   1.566   4.550
   37CER6   C2B  396   2.955   1.525   4.850
   38CER6   NOH  397   0.711   3.100   3.350
   38CER6    OH  398   0.712   3.001   3.650
   38CER6   GLA  399   0.451   2.953   3.650
   38CER6   GLB  400   0.613   2.959   3.650
   38CER6   C1A  401   0.516   2.976   3.950
   38CER6   C2A  402   0.420   2.967   4.250
   38CER6   C1B  403   0.671   2.992   4.550
   38CER6   C2B  404   0.676   2.994   4.850
   39CER6   NOH  405   1.315   1.605   3.350
   39CER6    OH  406   1.390   1.515   3.650
   39CER6   GLA  407   1.293   1.283   3.650
   39CER6   GLB  408   1.354   1.437   3.650
   39CER6   C1A  409   1.316   1.343   3.950
   39CER6   C2A  410   1.334   1.296   4.250
   39CER6   C1B  411   1.484   1.553   4.550
   39CER6   C2B  412   1.458   1.489   4.850
   40CER6   NOH  413   4.372   2.242   3.350
   40CER6    OH  414   4.487   2.302   3.650
   40CER6   GLA  415   4.635   2.180   3.650
   40CER6   GLB  416   4.540   2.201   3.650
   40CER6   C1A  417   4.673   2.108   3.950
   40CER6   C2A  418   4.591   2.107   4.250
   40CER6   C1B  419   4.454   2.304   4.550
   40CER6   C2B  420   4.448   2.286   4.850
   41CER6   NOH  421   4.870   3.102   3.350
   41CER6    OH  422   4.853   2.957   3.650
   41CER6   GLA  423   4.663   3.009   3.650
   41CER6   GLB  424   4.762   2.963   3.650
   41CER6   C1A  425   4.594   2.943   3.950
   41CER6   C2A  426   4.647   2.968   4.250
   41CER6   C1B  427   4.929   2.969   4.550
   41CER6   C2B  428   4.863   2.953   4.850
   42CER6   NOH  429   1.041   0.399   3.350
   42CER6    OH  430   1.053   0.551   3.650
   42CER6   GLA  431   1.338   0.420   3.650
   42CER6   GLB  432   1.160   0.548   3.650
   42CER6   C1A  433   1.264   0.474   3.950
   42CER6   C2A  434   1.271   0.488   4.250
   42CER6   C1B  435   1.052   0.532   4.550
   42CER6   C2B  436   1.028   0.565   4.850
   43CER6   NOH  437   3.868   4.087   3.350
   43CER6    OH  438   3.993   3.999   3.650
   43CER6   GLA  439   3.821   3.804   3.650
   43CER6   GLB  440   3.921   3.832   3.650
   43CER6   C1A  441   3.794   3.849   3.950
   43CER6   C2A  442   3.767   3.825   4.250
   43CER6   C1B  443   3.967   3.921   4.550
   43CER6   C2B  444   3.953   3.929   4.850
   44CER6   NOH  445   3.806   3.229   3.350
   44CER6    OH  446   3.920   3.141   3.650
   44CER6   GLA  447   3.769   2.980   3.650
   44CER6   GLB  448   3.861   3.116   3.650
   44CER6   C1A  449   3.789   2.947   3.950
   44CER6   C2A  450   3.816   2.988   4.250
   44CER6   C1B  451   3.914   3.162   4.550
   44CER6   C2B  452   3.988   3.199   4.850
   45CER6   NOH  453   2.310   1.505   3.350
   45CER6    OH  454   2.348   1.448   3.650
   45CER6   GLA  455   2.089   1.339   3.650
   45CER6   GLB  456   2.191   1.331   3.650
   45CER6   C1A  457   2.146   1.309   3.950
   45CER6   C2A  458   2.182   1.307   4.250
   45CER6   C1B  459   2.348   1.408   4.550
   45CER6   C2B  460   2.316   1.457   4.850
   46POPC   NC3  461   3.770   0.433   3.050
   46POPC   PO4  462   3.849   0.472   3.350
   46POPC   GL1  463   3.775   0.455   3.650
   46POPC   GL2  464   3.859   0.535   3.650
   46POPC   C1A  465   3.765   0.511   3.950
   46POPC   D2A  466   3.838   0.490   4.250
   46POPC   C3A  467   3.821   0.517   4.550
   46POPC   C4A  468   3.754   0.425   4.850
   46POPC   C1B  469   4.030   0.572   3.950
   46POPC   C2B  470   3.981   0.665   4.250
   46POPC   C3B  471   4.038   0.662   4.550
   46POPC   C4B  472   3.996   0.633   4.850
   47POPC   NC3  473   1.350   3.753   3.050
   47POPC   PO4  474   1.304   3.825   3.350
   47POPC   GL1  475   1.252   3.756   3.650
   47POPC   GL2  476   1.248   3.659   3.650
   47POPC   C1A  477   1.263   3.764   3.950
   47POPC   D2A  478   1.309   3.849   4.250
   47POPC   C3A  479   1.256   3.762   4.550
   47POPC   C4A  480   1.329   3.761   4.850
   47POPC   C1B  481   1.142   3.653   3.950
   47POPC   C2B  482   1.160   3.627   4.250
   47POPC   C3B  483   1.165   3.614   4.550
   47POPC   C4B  484   1.132   3.611   4.850
   48POPC   NC3  485   2.999   2.982   3.050
   48POPC   PO4  486   2.970   2.995   3.350
   48POPC   GL1  487   2.974   2.975   3.650
   48POPC   GL2  488   2.915   2.876   3.650
   48POPC   C1A  489   2.930   2.969   3.950
   48POPC   D2A  490   2.986   2.923   4.250
   48POPC   C3A  491   2.985   2.999   4.550
   48POPC   C4A  492   2.986   3.011   4.850
   48POPC   C1B  493   2.814   2.848   3.950
   48POPC   C2B  494   2.790   2.852   4.250
   48POPC   C3B  495   2.723   2.852   4.550
   48POPC   C4B  496   2.740   2.853   4.850
   49POPC   NC3  497   2.096   3.790   3.050
   49POPC   PO4  498   2.126   3.847   3.350
   49POPC   GL1  499   2.139   3.838   3.650
   49POPC   GL2  500   2.130   3.884   3.650
   49POPC   C1A  501   2.085   3.819   3.950
   49POPC   D2A  502   2.183   3.824   4.250
   49POPC   C3A  503   2.138   3.780   4.550
   49POPC   C4A  504   2.121   3.840   4.850
   49POPC   C1B  505   2.102   4.067   3.950
   49POPC   C2B  506   2.108   4.016   4.250
   49POPC   C3B  507   2.194   4.069   4.550
   49POPC   C4B  508   2.166   4.003   4.850
   50POPC   NC3  509   3.775   1.253   3.050
   50POPC   PO4  510   3.839   1.328   3.350
   50POPC   GL1  511   3.760   1.287   3.650
   50POPC   GL2  512   3.751   1.408   3.650
   50POPC   C1A  513   3.836   1.262   3.950
   50POPC   D2A  514   3.785   1.298   4.250
   50POPC   C3A  515   3.777   1.284   4.550
   50POPC   C4A  516   3.765   1.256   4.850
   50POPC   C1B  517   3.664   1.506   3.950
   50POPC   C2B  518   3.700   1.554   4.250
   50POPC   C3B  519   3.681   1.539   4.550
   50POPC   C4B  520   3.665   1.548   4.850
   51POPC   NC3  521   3.017   0.468   3.050
   51POPC   PO4  522   2.985   0.472   3.350
   51POPC   GL1  523   3.014   0.428   3.650
   51POPC   GL2  524   2.940   0.601   3.650
   51POPC   C1A  525   2.940   0.478   3.950
   51POPC   D2A  526   3.011   0.508   4.250
   51POPC   C3A  527   3.008   0.454   4.550
   51POPC   C4A  528   2.939   0.484   4.850
   51POPC   C1B  529   2.809   0.687   3.950
   51POPC   C2B  530   2.837   0.667   4.250
   51POPC   C3B  531   2.817   0.633   4.550
   51POPC   C4B  532   2.795   0.646   4.850
   52POPC   NC3  533   4.609   1.328   3.050
   52POPC   PO4  534   4.673   1.285   3.350
   52POPC   GL1  535   4.646   1.326   3.650
   52POPC   GL2  536   4.554   1.204   3.650
   52POPC   C1A  537   4.675   1.253   3.950
   52POPC   D2A  538   4.624   1.332   4.250
   52POPC   C3A  539   4.679   1.308   4.550
   52POPC   C4A  540   4.629   1.313   4.850
   52POPC   C1B  541   4.359   1.162   3.950
   52POPC   C2B  542   4.379   1.191   4.250
   52POPC   C3B  543   4.405   1.243   4.550
   52POPC   C4B  544   4.355   1.167   4.850
   53POPC   NC3  545   2.124   0.504   3.050
   53POPC   PO4  546   2.163   0.463   3.350
   53POPC   GL1  547   2.114   0.462   3.650
   53POPC   GL2  548   2.113   0.627   3.650
   53POPC   C1A  549   2.137   0.475   3.950
   53POPC   D2A  550   2.126   0.465   4.250
   53POPC   C3A  551   2.115   0.449   4.550
   53POPC   C4A  552   2.122   0.488   4.850
   53POPC   C1B  553   2.221   0.690   3.950
   53POPC   C2B  554   2.194   0.687   4.250
   53POPC   C3B  555   2.152   0.708   4.550
   53POPC   C4B  556   2.150   0.703   4.850
   54POPC   NC3  557   0.466   2.125   3.050
   54POPC   PO4  558   0.502   2.127   3.350
   54POPC   GL1  559   0.422   2.168   3.650
   54POPC   GL2  560   0.627   2.151   3.650
   54POPC   C1A  561   0.474   2.126   3.950
   54POPC   D2A  562   0.493   2.098   4.250
   54POPC   C3A  563   0.492   2.180   4.550
   54POPC   C4A  564   0.459   2.153   4.850
   54POPC   C1B  565   0.690   2.202   3.950
   54POPC   C2B  566   0.683   2.246   4.250
   54POPC   C3B  567   0.740   2.218   4.550
   54POPC   C4B  568   0.740   2.200   4.850
   55POPC   NC3  569   4.665   0.428   3.050
   55POPC   PO4  570   4.682   0.491   3.350
   55POPC   GL1  571   4.649   0.474   3.650
   55POPC   GL2  572   4.652   0.304   3.650
   55POPC   C1A  573   4.599   0.432   3.950
   55POPC   D2A  574   4.645   0.495   4.250
   55POPC   C3A  575   4.660   0.453   4.550
   55POPC   C4A  576   4.618   0.441   4.850
   55POPC   C1B  577   4.650   0.201   3.950
   55POPC   C2B  578   4.644   0.181   4.250
   55POPC   C3B  579   4.655   0.249   4.550
   55POPC   C4B  580   4.634   0.172   4.850
   56POPC   NC3  581   0.490   4.589   3.050
   56POPC   PO4  582   0.425   4.591   3.350
   56POPC   GL1  583   0.431   4.615   3.650
   56POPC   GL2  584   0.563   4.585   3.650
   56POPC   C1A  585   0.493   4.584   3.950
   56POPC   D2A  586   0.459   4.596   4.250
   56POPC   C3A  587   0.490   4.602   4.550
   56POPC   C4A  588   0.477   4.677   4.850
   56POPC   C1B  589   0.639   4.471   3.950
   56POPC   C2B  590   0.662   4.514   4.250
   56POPC   C3B  591   0.668   4.483   4.550
   56POPC   C4B  592   0.706   4.565   4.850
   57POPC   NC3  593   0.452   3.803   3.050
   57POPC   PO4  594   0.479   3.798   3.350
   57POPC   GL1  595   0.428   3.845   3.650
   57POPC   GL2  596   0.384   3.873   3.650
   57POPC   C1A  597   0.454   3.784   3.950
   57POPC   D2A  598   0.418   3.776   4.250
   57POPC   C3A  599   0.428   3.776   4.550
   57POPC   C4A  600   0.500   3.775   4.850
   57POPC   C1B  601   0.363   4.011   3.950
   57POPC   C2B  602   0.431   4.017   4.250
   57POPC   C3B  603   0.420   4.079   4.550
   57POPC   C4B  604   0.441   4.062   4.850
   58POPC   NC3  605   4.673   4.591   3.050
   58POPC   PO4  606   4.667   4.589   3.350
   58POPC   GL1  607   4.623   4.646   3.650
   58POPC   GL2  608   4.551   4.744   3.650
   58POPC   C1A  609   4.681   4.678   3.950
   58POPC   D2A  610   4.663   4.634   4.250
   58POPC   C3A  611   4.669   4.649   4.550
   58POPC   C4A  612   4.606   4.663   4.850
   58POPC   C1B  613   4.435   4.791   3.950
   58POPC   C2B  614   4.461   4.847   4.250
   58POPC   C3B  615   4.476   4.866   4.550
   58POPC   C4B  616   4.469   4.838   4.850
   59POPC   NC3  617   2.933   2.158   3.050
   59POPC   PO4  618   2.928   2.137   3.350
   59POPC   GL1  619   2.945   2.104   3.650
   59POPC   GL2  620   3.139   2.169   3.650
   59POPC   C1A  621   2.921   2.130   3.950
   59POPC   D2A  622   2.993   2.183   4.250
   59POPC   C3A  623   2.956   2.108   4.550
   59POPC   C4A  624   2.979   2.104   4.850
   59POPC   C1B  625   3.215   2.176   3.950
   59POPC   C2B  626   3.237   2.141   4.250
   59POPC   C3B  627   3.233   2.183   4.550
   59POPC   C4B  628   3.166   2.200   4.850
   60POPC   NC3  629   2.142   2.968   3.050
   60POPC   PO4  630   2.093   2.959   3.350
   60POPC   GL1  631   2.093   2.978   3.650
   60POPC   GL2  632   2.243   3.014   3.650
   60POPC   C1A  633   2.089   2.925   3.950
   60POPC   D2A  634   2.132   2.965   4.250
   60POPC   C3A  635   2.122   2.930   4.550
   60POPC   C4A  636   2.173   2.926   4.850
   60POPC   C1B  637   2.272   3.195   3.950
   60POPC   C2B  638   2.253   3.190   4.250
   60POPC   C3B  639   2.349   3.153   4.550
   60POPC   C4B  640   2.304   3.179   4.850
   61POPC   NC3  641   0.503   1.284   3.050
   61POPC   PO4  642   0.468   1.341   3.350
   61POPC   GL1  643   0.465   1.274   3.650
   61POPC   GL2  644   0.444   1.144   3.650
   61POPC   C1A  645   0.473   1.348   3.950
   61POPC   D2A  646   0.501   1.318   4.250
   61POPC   C3A  647   0.431   1.302   4.550
   61POPC   C4A  648   0.505   1.250   4.850
   61POPC   C1B  649   0.335   1.106   3.950
   61POPC   C2B  650   0.296   1.129   4.250
   61POPC   C3B  651   0.306   1.127   4.550
   61POPC   C4B  652   0.320   1.114   4.850
   62POPC   NC3  653   1.304   2.957   3.050
   62POPC   PO4  654   1.339   2.928   3.350
   62POPC   GL1  655   1.286   2.983   3.650
   62POPC   GL2  656   1.237   3.074   3.650
   62POPC   C1A  657   1.315   2.922   3.950
   62POPC   D2A  658   1.260   2.997   4.250
   62POPC   C3A  659   1.314   2.986   4.550
   62POPC   C4A  660   1.331   2.994   4.850
   62POPC   C1B  661   1.084   3.161   3.950
   62POPC   C2B  662   1.129   3.169   4.250
   62POPC   C3B  663   1.085   3.128   4.550
   62POPC   C4B  664   1.125   3.165   4.850
   63POPC   NC3  665   1.255   2.179   3.050
   63POPC   PO4  666   1.272   2.141   3.350
   63POPC   GL1  667   1.252   2.155   3.650
   63POPC   GL2  668   1.203   2.106   3.650
   63POPC   C1A  669   1.341   2.086   3.950
   63POPC   D2A  670   1.329   2.094   4.250
   63POPC   C3A  671   1.315   2.129   4.550
   63POPC   C4A  672   1.297   2.170   4.850
   63POPC   C1B  673   1.027   2.112   3.950
   63POPC   C2B  674   1.098   2.127   4.250
   63POPC   C3B  675   1.081   2.118   4.550
   63POPC   C4B  676   1.033   2.105   4.850
   64POPC   NC3  677   1.347   4.680   3.050
   64POPC   PO4  678   1.261   4.635   3.350
   64POPC   GL1  679   1.335   4.676   3.650
   64POPC   GL2  680   1.167   4.607   3.650
   64POPC   C1A  681   1.286   4.590   3.950
   64POPC   D2A  682   1.298   4.633   4.250
   64POPC   C3A  683   1.256   4.604   4.550
   64POPC   C4A  684   1.267   4.589   4.850
   64POPC   C1B  685   1.121   4.494   3.950
   64POPC   C2B  686   1.100   4.507   4.250
   64POPC   C3B  687   1.144   4.504   4.550
   64POPC   C4B  688   1.055   4.444   4.850
   65POPC   NC3  689   4.591   3.772   3.050
   65POPC   PO4  690   4.602   3.768   3.350
   65POPC   GL1  691   4.605   3.750   3.650
   65POPC   GL2  692   4.608   3.675   3.650
   65POPC   C1A  693   4.625   3.797   3.950
   65POPC   D2A  694   4.618   3.757   4.250
   65POPC   C3A  695   4.635   3.754   4.550
   65POPC   C4A  696   4.633   3.801   4.850
   65POPC   C1B  697   4.571   3.598   3.950
   65POPC   C2B  698   4.574   3.564   4.250
   65POPC   C3B  699   4.600   3.598   4.550
   65POPC   C4B  700   4.571   3.534   4.850
   66POPC   NC3  701   2.087   2.168   3.050
   66POPC   PO4  702   2.113   2.089   3.350
   66POPC   GL1  703   2.148   2.155   3.650
   66POPC   GL2  704   2.098   2.212   3.650
   66POPC   C1A  705   2.150   2.083   3.950
   66POPC   D2A  706   2.141   2.141   4.250
   66POPC   C3A  707   2.147   2.158   4.550
   66POPC   C4A  708   2.125   2.103   4.850
   66POPC   C1B  709   2.029   2.313   3.950
   66POPC   C2B  710   2.073   2.337   4.250
   66POPC   C3B  711   1.993   2.318   4.550
   66POPC   C4B  712   2.059   2.407   4.850
   67POPC   NC3  713   2.098   4.605   3.050
   67POPC   PO4  714   2.156   4.598   3.350
   67POPC   GL1  715   2.127   4.614   3.650
   67POPC   GL2  716   2.067   4.707   3.650
   67POPC   C1A  717   2.161   4.588   3.950
   67POPC   D2A  718   2.177   4.619   4.250
   67POPC   C3A  719   2.119   4.587   4.550
   67POPC   C4A  720   2.119   4.631   4.850
   67POPC   C1B  721   2.059   4.824   3.950
   67POPC   C2B  722   2.061   4.881   4.250
   67POPC   C3B  723   2.045   4.904   4.550
   67POPC   C4B  724   2.035   4.872   4.850
   68POPC   NC3  725   3.824   4.636   3.050
   68POPC   PO4  726   3.783   4.672   3.350
   68POPC   GL1  727   3.830   4.634   3.650
   68POPC   GL2  728   3.658   4.581   3.650
   68POPC   C1A  729   3.812   4.600   3.950
   68POPC   D2A  730   3.828   4.640   4.250
   68POPC   C3A  731   3.811   4.601   4.550
   68POPC   C4A  732   3.769   4.614   4.850
   68POPC   C1B  733   3.577   4.613   3.950
   68POPC   C2B  734   3.540   4.573   4.250
   68POPC   C3B  735   3.518   4.636   4.550
   68POPC   C4B  736   3.588   4.550   4.850
   69POPC   NC3  737   2.939   4.679   3.050
   69POPC   PO4  738   2.935   4.593   3.350
   69POPC   GL1  739   2.993   4.637   3.650
   69POPC   GL2  740   2.958   4.551   3.650
   69POPC   C1A  741   2.960   4.619   3.950
   69POPC   D2A  742   2.927   4.630   4.250
   69POPC   C3A  743   2.974   4.599   4.550
   69POPC   C4A  744   2.967   4.611   4.850
   69POPC   C1B  745   2.922   4.407   3.950
   69POPC   C2B  746   2.948   4.406   4.250
   69POPC   C3B  747   2.933   4.425   4.550
   69POPC   C4B  748   2.936   4.402   4.850
   70POPC   NC3  749   0.457   0.483   3.050
   70POPC   PO4  750   0.447   0.503   3.350
   70POPC   GL1  751   0.494   0.439   3.650
   70POPC   GL2  752   0.591   0.414   3.650
   70POPC   C1A  753   0.448   0.473   3.950
   70POPC   D2A  754   0.429   0.502   4.250
   70POPC   C3A  755   0.492   0.446   4.550
   70POPC   C4A  756   0.466   0.476   4.850
   70POPC   C1B  757   0.727   0.451   3.950
   70POPC   C2B  758   0.710   0.379   4.250
   70POPC   C3B  759   0.760   0.412   4.550
   70POPC   C4B  760   0.693   0.433   4.850
   71W        W  761   4.321   2.969   8.375
   72W        W  762   3.452   1.630   7.882
   73W        W  763   0.247   2.994   1.196
   74W        W  764   2.959   4.320   7.886
   75W        W  765   3.447   1.629   1.196
   76W        W  766   2.501   3.431   8.839
   77W        W  767   2.079   3.864   8.370
   78W        W  768   1.596   1.152   3.126
   79W        W  769   3.876   2.972   1.709
   80W        W  770   2.961   1.149   8.342
   81W        W  771   4.776   2.541   2.658
   82W        W  772   1.633   2.539   0.738
   83W        W  773   0.237   4.811   0.262
   84W        W  774   2.960   4.782   1.691
   85W        W  775   4.776   4.807   8.848
   86W        W  776   0.717   4.796   1.216
   87W        W  777   2.984   2.048   0.759
   88W        W  778   2.956   2.530   8.335
   89W        W  779   2.971   0.719   9.294
   90W        W  780   4.774   2.541   0.725
   91W        W  781   0.725   2.083   0.274
   92W        W  782   3.873   3.409   9.295
   93W        W  783   1.146   1.630   9.305
   94W        W  784   4.338   0.256   8.856
   95W        W  785   0.258   2.537   8.849
   96W        W  786   2.533   3.898   7.872
   97W        W  787   3.428   1.169   8.347
   98W        W  788   2.080   1.179   8.353
   99W        W  789   3.419   4.338   8.364
  100W        W  790   4.778   1.165   0.738
  101W        W  791   2.058   0.241   9.782
  102W        W  792   1.617   3.442   0.756
  103W        W  793   2.967   2.513   1.193
  104W        W  794   3.881   2.958   2.662
  105W        W  795   1.161   2.080   0.719
  106W        W  796   1.634   2.086   7.391
  107W        W  797   2.974   4.356   2.167
  108W        W  798   3.440   2.074   0.744
  109W        W  799   4.337   3.441   9.807
  110W        W  800   2.526   4.326   0.244
  111W        W  801   2.078   4.319   1.208
  112W        W  802   0.718   4.785   0.280
  113W        W  803   0.233   2.974   8.370
  114W        W  804   1.635   2.058   9.785
  115W        W  805   3.444   3.431   7.396
  116W        W  806   4.339   4.800   0.761
  117W        W  807   2.076   1.599   8.831
  118W        W  808   0.266   3.903   8.336
  119W        W  809   2.519   4.815   1.203
  120W        W  810   1.613   3.879   7.865
  121W        W  811   2.958   3.414   8.362
  122W        W  812   1.607   0.250   7.398
  123W        W  813   2.517   1.623   9.798
  124W        W  814   1.635   1.165   9.771
  125W        W  815   4.781   2.538   1.671
  126W        W  816   3.891   1.140   1.673
  127W        W  817   0.697   4.783   8.845
  128W        W  818   1.623   1.147   2.178
  129W        W  819   3.418   3.902   2.648
  130W        W  820   3.901   1.619   1.690
  131W        W  821   3.413   2.080   9.327
  132W        W  822   0.259   0.260   1.193
  133W        W  823   0.244   2.975   8.812
  134W        W  824   1.596   4.811   9.292
  135W        W  825   0.270   0.726   7.859
  136W        W  826   3.421   0.684   0.724
  137W        W  827   1.623   2.977   8.852
  138W        W  828   2.963   1.615   8.825
  139W        W  829   2.544   3.890   9.769
  140W        W  830   3.899   1.608   8.335
  141W        W  831   2.967   4.357   8.849
  142W        W  832   4.811   0.270   9.322
  143W        W  833   0.231   1.624   0.741
  144W        W  834   0.690   2.066   8.831
  145W        W  835   0.239   3.902   7.869
  146W        W  836   2.999   4.361   9.789
  147W        W  837   2.088   2.532   8.356
  148W        W  838   0.241   2.502   9.297
  149W        W  839   2.986   3.884   2.143
  150W        W  840   4.340   3.412   2.661
  151W        W  841   0.712   1.173   8.364
  152W        W  842   0.688   3.891   7.414
  153W        W  843   2.046   2.975   8.344
  154W        W  844   1.595   4.359   7.889
  155W        W  845   1.148   1.153   1.670
  156W        W  846   2.972   0.709   9.781
  157W        W  847   0.256   4.807   1.202
  158W        W  848   2.051   0.242   0.284
  159W        W  849   3.883   2.967   1.202
  160W        W  850   2.503   2.993   8.837
  161W        W  851   2.052   1.614   2.157
  162W        W  852   2.976   4.352   0.724
  163W        W  853   3.412   2.955   7.868
  164W        W  854   3.866   1.170   0.240
  165W        W  855   0.716   2.988   7.883
  166W        W  856   2.057   4.782   8.366
  167W        W  857   2.987   2.077   1.686
  168W        W  858   4.797   4.340   8.368
  169W        W  859   4.779   2.055   9.326
  170W        W  860   3.447   1.599   0.723
  171W        W  861   3.434   4.340   0.257
  172W        W  862   4.319   4.337   1.213
  173W        W  863   2.049   3.451   0.759
  174W        W  864   3.888   4.323   7.877
  175W        W  865   2.058   1.179   0.759
  176W        W  866   0.264   4.785   9.292
  177W        W  867   3.892   2.065   7.902
  178W        W  868   4.801   2.531   7.402
  179W        W  869   2.064   0.700   7.420
  180W        W  870   0.248   0.270   8.351
  181W        W  871   1.178   1.148   2.654
  182W        W  872   4.337   3.895   1.238
  183W        W  873   3.453   3.880   1.675
  184W        W  874   3.867   4.816   0.715
  185W        W  875   1.631   2.964   1.194
  186W        W  876   0.250   3.429   8.853
  187W        W  877   1.594   1.593   9.332
  188W        W  878   0.697   3.425   9.798
  189W        W  879   1.176   0.259   7.419
  190W        W  880   3.451   3.416   7.901
  191W        W  881   2.512   2.540   7.893
  192W        W  882   4.341   0.717   7.418
  193W        W  883   4.353   2.049   8.831
  194W        W  884   2.079   0.721   8.379
  195W        W  885   2.086   2.958   9.328
  196W        W  886   0.707   4.801   7.901
  197W        W  887   4.800   0.702   1.197
  198W        W  888   3.896   2.070   2.639
  199W        W  889   1.611   0.266   9.805
  200W        W  890   0.691   1.636   7.404
  201W        W  891   0.236   3.429   9.312
  202W        W  892   3.440   0.725   7.881
  203W        W  893   1.176   2.974   1.224
  204W        W  894   1.613   4.799   7.864
  205W        W  895   0.692   2.506   7.409
  206W        W  896   4.812   1.625   8.358
  207W        W  897   1.611   0.710   0.247
  208W        W  898   0.255   0.688   1.234
  209W        W  899   2.969   3.433   9.312
  210W        W  900   2.529   1.624   1.689
  211W        W  901   4.329   1.168   2.166
  212W        W  902   3.437   2.046   0.241
  213W        W  903   4.344   4.329   7.871
  214W        W  904   3.452   2.526   0.735
  215W        W  905   0.685   2.975   2.630
  216W        W  906   2.076   0.704   9.316
  217W        W  907   0.272   2.986   1.679
  218W        W  908   1.595   4.357   1.193
  219W        W  909   1.629   2.545   2.630
  220W        W  910   1.591   1.140   0.754
  221W        W  911   3.893   2.989   9.306
  222W        W  912   1.160   0.259   8.348
  223W        W  913   1.137   3.409   8.359
  224W        W  914   2.961   3.903   1.236
  225W        W  915   2.529   0.244   7.413
  226W        W  916   0.268   4.779   8.338
  227W        W  917   0.685   1.169   9.795
  228W        W  918   4.803   4.807   0.256
  229W        W  919   2.983   4.341   9.298
  230W        W  920   0.715   0.712   2.162
  231W        W  921   0.246   2.532   1.208
  232W        W  922   4.355   0.239   7.876
  233W        W  923   0.717   0.264   2.164
  234W        W  924   2.531   2.086   1.695
  235W        W  925   1.171   1.137   9.763
  236W        W  926   4.321   0.261   2.165
  237W        W  927   3.908   2.523   0.239
  238W        W  928   0.698   3.899   0.276
  239W        W  929   2.064   2.955   0.273
  240W        W  930   0.245   2.052   1.199
  241W        W  931   2.985   4.776   8.813
  242W        W  932   3.437   2.075   2.639
  243W        W  933   3.424   2.997   9.287
  244W        W  934   3.420   0.694   8.830
  245W        W  935   1.175   2.966   1.683
  246W        W  936   0.246   0.724   0.716
  247W        W  937   2.976   1.149   0.263
  248W        W  938   2.538   3.864   2.637
  249W        W  939   3.869   2.054   0.247
  250W        W  940   0.260   3.447   7.878
  251W        W  941   4.343   0.710   0.741
  252W        W  942   2.519   2.539   8.380
  253W        W  943   1.171   1.154   2.178
  254W        W  944   2.976   1.609   9.780
  255W        W  945   0.724   3.438   0.726
  256W        W  946   0.241   2.088   7.898
  257W        W  947   1.152   2.978   7.395
  258W        W  948   1.620   4.355   8.358
  259W        W  949   4.784   0.694   0.259
  260W        W  950   0.696   0.708   8.843
  261W        W  951   4.815   4.774   7.900
  262W        W  952   3.436   3.867   9.789
  263W        W  953   4.816   3.895   8.349
  264W        W  954   3.903   2.978   8.855
  265W        W  955   3.883   2.075   9.782
  266W        W  956   1.616   4.364   8.844
  267W        W  957   0.257   1.612   2.165
  268W        W  958   1.154   2.990   0.726
  269W        W  959   2.508   2.972   9.297
  270W        W  960   0.251   4.349   8.843
  271W        W  961   4.359   2.960   2.147
  272W        W  962   4.807   4.337   2.148
  273W        W  963   3.902   0.257   0.278
  274W        W  964   0.690   2.513   2.660
  275W        W  965   2.969   3.000   9.329
  276W        W  966   3.422   4.798   7.896
  277W        W  967   1.599   2.971   1.676
  278W        W  968   4.808   4.337   9.772
  279W        W  969   0.691   3.887   0.733
  280W        W  970   0.249   2.076   1.690
  281W        W  971   2.050   3.418   1.208
  282W        W  972   1.154   1.155   8.823
  283W        W  973   2.077   4.788   0.745
  284W        W  974   1.146   0.682   1.682
  285W        W  975   0.714   1.609   8.835
  286W        W  976   2.982   3.872   8.353
  287W        W  977   3.439   0.241   1.696
  288W        W  978   2.072   3.413   9.800
  289W        W  979   2.521   3.417   1.218
  290W        W  980   2.979   2.050   8.834
  291W        W  981   2.503   2.545   9.800
  292W        W  982   2.521   0.692   8.363
  293W        W  983   3.439   2.506   1.709
  294W        W  984   3.879   0.250   2.143
  295W        W  985   0.246   3.903   9.303
  296W        W  986   0.695   0.264   1.220
  297W        W  987   4.333   4.362   9.297
  298W        W  988   2.529   3.453   0.754
  299W        W  989   3.437   4.811   2.628
  300W        W  990   1.143   0.243   7.869
  301W        W  991   2.522   0.247   7.875
  302W        W  992   4.322   3.422   0.263
  303W        W  993   4.337   4.814   2.640
  304W        W  994   0.249   1.163   9.808
  305W        W  995   3.871   2.970   2.161
  306W        W  996   1.616   2.981   7.872
  307W        W  997   3.866   2.507   8.379
  308W        W  998   0.249   4.785   9.794
  309W        W  999   2.521   3.888   7.384
  310W        W 1000   0.260   2.521   7.891
  311W        W 1001   0.692   2.961   2.190
  312W        W 1002   3.445   0.715   1.688
  313W        W 1003   2.089   1.163   9.322
  314W        W 1004   3.452   4.795   2.165
  315W        W 1005   0.714   1.168   0.266
  316W        W 1006   2.069   0.690   8.838
  317W        W 1007   0.696   4.320   8.839
  318W        W 1008   4.806   4.816   2.154
  319W        W 1009   1.151   2.518   9.306
  320W        W 1010   2.527   2.051   0.285
  321W        W 1011   0.725   2.982   0.734
  322W        W 1012   0.230   1.636   8.813
  323W        W 1013   1.625   1.148   1.670
  324W        W 1014   1.171   2.992   0.246
  325W        W 1015   3.439   2.508   8.349
  326W        W 1016   1.622   4.324   9.296
  327W        W 1017   2.080   2.503   0.721
  328W        W 1018   0.232   4.362   2.165
  329W        W 1019   4.801   0.689   9.320
  330W        W 1020   3.431   2.536   7.863
  331W        W 1021   3.895   3.434   8.823
  332W        W 1022   2.050   4.361   0.243
  333W        W 1023   0.705   1.140   8.819
  334W        W 1024   2.086   2.075   0.248
  335W        W 1025   2.065   4.804   9.295
  336W        W 1026   4.319   0.685   9.289
  337W        W 1027   2.074   3.887   1.667
  338W        W 1028   0.264   2.533   0.738
  339W        W 1029   0.692   0.725   0.717
  340W        W 1030   0.724   3.409   7.859
  341W        W 1031   4.789   0.713   8.337
  342W        W 1032   2.959   1.613   8.345
  343W        W 1033   2.529   2.085   8.823
  344W        W 1034   2.963   3.424   0.738
  345W        W 1035   3.446   1.146   0.256
  346W        W 1036   3.893   3.414   7.406
  347W        W 1037   3.891   2.971   0.241
  348W        W 1038   3.871   4.322   9.311
  349W        W 1039   2.510   4.814   8.817
  350W        W 1040   4.345   3.888   1.690
  351W        W 1041   2.060   2.516   9.321
  352W        W 1042   4.338   2.541   2.186
  353W        W 1043   3.420   2.047   8.814
  354W        W 1044   3.867   1.595   9.801
  355W        W 1045   1.614   3.869   2.185
  356W        W 1046   4.325   2.544   9.300
  357W        W 1047   4.354   3.436   1.675
  358W        W 1048   4.791   1.153   8.364
  359W        W 1049   2.070   2.969   1.231
  360W        W 1050   2.065   1.617   1.704
  361W        W 1051   1.619   2.527   0.245
  362W        W 1052   0.268   0.702   9.294
  363W        W 1053   0.237   1.157   9.298
  364W        W 1054   0.238   0.723   1.677
  365W        W 1055   1.593   2.084   2.187
  366W        W 1056   2.085   3.410   0.239
  367W        W 1057   1.154   1.603   2.163
  368W        W 1058   4.809   3.439   8.842
  369W        W 1059   2.996   3.896   3.123
  370W        W 1060   4.338   0.699   1.669
  371W        W 1061   0.246   1.182   8.818
  372W        W 1062   3.907   1.168   1.215
  373W        W 1063   3.895   0.696   0.761
  374W        W 1064   3.418   1.615   9.293
  375W        W 1065   4.780   1.156   9.310
  376W        W 1066   4.352   0.267   1.206
  377W        W 1067   0.686   4.804   1.704
  378W        W 1068   2.500   1.144   1.227
  379W        W 1069   4.781   4.799   1.220
  380W        W 1070   3.441   3.442   0.731
  381W        W 1071   0.711   2.543   0.251
  382W        W 1072   0.241   4.324   7.857
  383W        W 1073   3.449   1.168   7.425
  384W        W 1074   2.544   0.233   8.834
  385W        W 1075   2.073   4.341   8.838
  386W        W 1076   4.788   1.171   1.714
  387W        W 1077   3.451   1.608   9.804
  388W        W 1078   2.513   0.695   1.218
  389W        W 1079   4.352   4.363   0.742
  390W        W 1080   4.321   2.501   0.760
  391W        W 1081   0.688   1.165   9.320
  392W        W 1082   0.717   0.726   1.679
  393W        W 1083   4.781   1.602   7.415
  394W        W 1084   0.237   4.357   9.768
  395W        W 1085   4.802   0.724   2.175
  396W        W 1086   4.797   2.975   1.218
  397W        W 1087   3.870   2.955   8.370
  398W        W 1088   1.626   1.611   2.664
  399W        W 1089   2.069   2.966   1.693
  400W        W 1090   2.955   2.978   8.819
  401W        W 1091   4.801   3.432   0.240
  402W        W 1092   1.141   0.701   7.409
  403W        W 1093   2.986   1.592   1.202
  404W        W 1094   1.138   4.804   9.770
  405W        W 1095   3.894   1.179   9.295
  406W        W 1096   1.175   2.992   7.873
  407W        W 1097   1.144   0.712   7.899
  408W        W 1098   4.335   4.332   0.264
  409W        W 1099   4.815   4.347   9.320
  410W        W 1100   2.999   0.272   8.856
  411W        W 1101   1.146   4.357   0.265
  412W        W 1102   4.343   1.601   7.879
  413W        W 1103   4.780   4.325   7.903
  414W        W 1104   4.779   0.262   9.766
  415W        W 1105   2.956   3.434   1.686
  416W        W 1106   3.903   2.519   1.686
  417W        W 1107   3.898   1.604   8.813
  418W        W 1108   2.977   1.598   9.313
  419W        W 1109   3.453   0.684   9.304
  420W        W 1110   4.797   4.321   8.857
  421W        W 1111   1.633   1.597   1.224
  422W        W 1112   3.905   2.505   2.629
  423W        W 1113   1.158   4.326   1.213
  424W        W 1114   1.636   0.249   7.890
  425W        W 1115   1.139   1.629   8.361
  426W        W 1116   0.712   4.807   9.766
  427W        W 1117   2.086   1.142   0.244
  428W        W 1118   2.973   0.690   1.685
  429W        W 1119   1.158   2.503   7.865
  430W        W 1120   2.535   1.592   8.822
  431W        W 1121   4.327   4.812   9.790
  432W        W 1122   3.431   2.537   9.311
  433W        W 1123   2.525   3.440   9.290
  434W        W 1124   1.149   4.803   1.199
  435W        W 1125   4.325   2.532   7.898
  436W        W 1126   2.987   2.998   7.385
  437W        W 1127   4.324   4.818   2.160
  438W        W 1128   4.346   4.793   9.310
  439W        W 1129   0.708   2.516   1.671
  440W        W 1130   3.902   4.784   7.426
  441W        W 1131   4.348   3.418   7.414
  442W        W 1132   2.509   2.077   1.207
  443W        W 1133   2.545   1.599   2.643
  444W        W 1134   3.445   1.147   9.330
  445W        W 1135   2.060   0.241   8.825
  446W        W 1136   4.322   2.046   1.193
  447W        W 1137   1.620   1.609   0.268
  448W        W 1138   0.699   2.526   9.794
  449W        W 1139   2.539   4.815   0.251
  450W        W 1140   0.235   0.259   2.174
  451W        W 1141   2.524   1.625   1.206
  452W        W 1142   0.254   1.157   8.352
  453W        W 1143   0.255   2.958   2.154
  454W        W 1144   4.331   4.324   9.786
  455W        W 1145   3.897   1.611   7.883
  456W        W 1146   1.148   3.413   2.638
  457W        W 1147   0.703   0.719   7.863
  458W        W 1148   4.784   2.066   9.782
  459W        W 1149   3.418   3.453   2.620
  460W        W 1150   3.888   3.451   0.249
  461W        W 1151   4.803   2.060   0.754
  462W        W 1152   3.421   1.165   0.726
  463W        W 1153   4.341   0.715   2.157
  464W        W 1154   3.450   2.086   1.219
  465W        W 1155   2.513   4.782   7.868
  466W        W 1156   4.354   2.538   0.266
  467W        W 1157   4.794   4.796   1.696
  468W        W 1158   2.512   0.699   0.746
  469W        W 1159   2.963   3.907   8.811
  470W        W 1160   3.438   0.684   9.808
  471W        W 1161   2.995   0.727   2.146
  472W        W 1162   2.981   1.167   8.828
  473W        W 1163   3.417   3.443   1.671
  474W        W 1164   2.994   2.983   7.877
  475W        W 1165   2.536   3.891   9.289
  476W        W 1166   4.340   3.412   8.372
  477W        W 1167   0.709   2.542   2.181
  478W        W 1168   2.540   4.816   0.751
  479W        W 1169   1.631   0.687   7.858
  480W        W 1170   4.355   4.782   1.672
  481W        W 1171   1.616   3.426   2.161
  482W        W 1172   2.539   0.707   2.151
  483W        W 1173   3.429   2.050   1.680
  484W        W 1174   4.790   2.078   7.902
  485W        W 1175   1.141   4.816   0.260
  486W        W 1176   2.047   3.867   0.736
  487W        W 1177   1.613   0.253   1.207
  488W        W 1178   3.901   2.535   7.882
  489W        W 1179   4.792   3.440   0.732
  490W        W 1180   3.884   2.541   9.311
  491W        W 1181   4.354   2.054   8.361
  492W        W 1182   3.903   1.614   9.327
  493W        W 1183   0.691   2.076   9.313
  494W        W 1184   0.711   2.982   1.233
  495W        W 1185   3.871   4.361   1.704
  496W        W 1186   2.535   3.412   2.145
  497W        W 1187   3.904   3.904   9.292
  498W        W 1188   4.813   2.539   9.764
  499W        W 1189   3.430   0.705   1.222
  500W        W 1190   2.047   3.449   7.876
  501W        W 1191   1.606   4.797   0.269
  502W        W 1192   2.968   2.966   2.168
  503W        W 1193   0.697   3.879   7.891
  504W        W 1194   1.167   4.786   7.863
  505W        W 1195   4.346   0.696   8.349
  506W        W 1196   2.057   3.878   0.269
  507W        W 1197   4.335   1.180   1.222
  508W        W 1198   4.789   1.148   9.801
  509W        W 1199   0.264   1.154   0.258
  510W        W 1200   4.794   0.265   0.241
  511W        W 1201   1.180   4.784   2.147
  512W        W 1202   2.989   0.249   9.781
  513W        W 1203   1.180   3.887   0.253
  514W        W 1204   2.998   3.428   9.795
  515W        W 1205   3.438   0.239   7.408
  516W        W 1206   3.867   0.692   8.838
  517W        W 1207   2.072   0.239   2.145
  518W        W 1208   0.244   0.715   2.174
  519W        W 1209   4.788   3.452   1.210
  520W        W 1210   2.982   0.246   0.718
  521W        W 1211   2.997   2.980   0.245
  522W        W 1212   2.522   0.722   0.285
  523W        W 1213   1.144   4.356   1.685
  524W        W 1214   3.871   4.351   8.367
  525W        W 1215   0.238   0.698   0.281
  526W        W 1216   4.775   4.338   0.251
  527W        W 1217   1.593   4.784   8.356
  528W        W 1218   3.421   0.726   2.664
  529W        W 1219   2.047   0.695   1.199
  530W        W 1220   4.795   1.606   0.718
  531W        W 1221   4.806   4.346   1.198
  532W        W 1222   2.955   3.884   9.779
  533W        W 1223   2.987   3.447   2.165
  534W        W 1224   4.779   2.986   9.800
  535W        W 1225   4.801   2.086   8.369
  536W        W 1226   1.154   4.336   7.899
  537W        W 1227   2.505   2.526   1.227
  538W        W 1228   1.604   0.687   0.761
  539W        W 1229   4.356   4.816   1.218
  540W        W 1230   2.052   0.710   7.875
  541W        W 1231   0.258   4.816   1.671
  542W        W 1232   1.160   3.438   2.153
  543W        W 1233   4.344   3.430   0.745
  544W        W 1234   0.262   4.325   0.735
  545W        W 1235   2.517   1.175   8.353
  546W        W 1236   2.078   1.618   0.272
  547W        W 1237   3.428   0.229   1.237
  548W        W 1238   2.974   3.445   2.665
  549W        W 1239   1.150   2.515   9.767
  550W        W 1240   1.630   2.077   7.859
  551W        W 1241   3.873   4.782   1.691
  552W        W 1242   2.965   2.513   7.890
  553W        W 1243   0.239   2.516   8.380
  554W        W 1244   3.437   1.144   7.869
  555W        W 1245   1.161   1.139   8.372
  556W        W 1246   0.264   1.611   2.656
  557W        W 1247   1.623   3.889   0.258
  558W        W 1248   2.994   0.722   0.754
  559W        W 1249   1.614   2.999   9.794
  560W        W 1250   3.454   1.610   2.163
  561W        W 1251   2.057   4.336   8.368
  562W        W 1252   2.061   1.163   2.659
  563W        W 1253   0.721   0.724   8.364
  564W        W 1254   4.796   2.086   2.621
  565W        W 1255   4.361   1.181   9.776
  566W        W 1256   2.063   3.440   8.828
  567W        W 1257   4.354   2.996   9.322
  568W        W 1258   2.061   2.091   8.846
  569W        W 1259   1.142   2.509   2.176
  570W        W 1260   0.242   2.061   0.756
  571W        W 1261   4.327   2.959   2.630
  572W        W 1262   4.785   1.613   2.171
  573W        W 1263   2.507   4.803   8.371
  574W        W 1264   0.719   4.817   9.327
  575W        W 1265   2.959   0.701   8.847
  576W        W 1266   3.424   1.171   2.187
  577W        W 1267   3.411   3.893   9.302
  578W        W 1268   4.333   2.055   2.619
  579W        W 1269   1.593   2.085   0.743
  580W        W 1270   3.413   2.078   2.163
  581W        W 1271   2.530   1.597   0.244
  582W        W 1272   1.595   2.978   0.261
  583W        W 1273   0.245   0.708   9.783
  584W        W 1274   2.509   1.604   8.365
  585W        W 1275   1.622   2.512   7.899
  586W        W 1276   3.875   3.414   7.890
  587W        W 1277   2.973   2.983   1.698
  588W        W 1278   0.263   0.248   1.708
  589W        W 1279   3.453   3.876   8.850
  590W        W 1280   2.504   2.970   2.170
  591W        W 1281   0.705   4.352   0.739
  592W        W 1282   0.230   2.532   2.166
  593W        W 1283   1.137   1.613   7.886
  594W        W 1284   4.336   2.969   0.242
  595W        W 1285   3.892   1.592   7.415
  596W        W 1286   1.613   2.071   8.841
  597W        W 1287   2.533   4.785   9.800
  598W        W 1288   3.892   0.255   9.807
  599W        W 1289   3.881   2.070   0.719
  600W        W 1290   3.907   1.143   8.342
  601W        W 1291   3.428   0.254   2.175
  602W        W 1292   2.506   0.721   9.795
  603W        W 1293   0.230   3.902   8.846
  604W        W 1294   4.340   3.908   9.288
  605W        W 1295   3.412   0.718   0.247
  606W        W 1296   4.774   2.056   1.709
  607W        W 1297   1.140   2.070   9.301
  608W        W 1298   1.182   3.901   8.813
  609W        W 1299   2.512   3.892   8.828
  610W        W 1300   3.434   3.897   7.866
  611W        W 1301   2.539   2.528   8.848
  612W        W 1302   2.972   3.864   2.658
  613W        W 1303   1.173   2.058   1.703
  614W        W 1304   2.966   0.243   9.317
  615W        W 1305   4.791   2.985   7.870
  616W        W 1306   3.444   2.981   0.717
  617W        W 1307   4.328   3.444   9.307
  618W        W 1308   0.714   2.065   9.772
  619W        W 1309   4.807   0.242   0.716
  620W        W 1310   1.156   3.418   0.759
  621W        W 1311   3.904   1.596   1.208
  622W        W 1312   4.774   1.154   7.885
  623W        W 1313   3.414   3.869   1.201
  624W        W 1314   4.334   2.532   9.784
  625W        W 1315   3.418   4.358   9.295
  626W        W 1316   4.344   0.727   8.851
  627W        W 1317   2.982   0.247   0.247
  628W        W 1318   2.987   4.798   0.749
  629W        W 1319   2.541   4.321   1.684
  630W        W 1320   3.452   0.263   8.837
  631W        W 1321   2.506   0.234   2.632
  632W        W 1322   4.350   1.614   2.634
  633W        W 1323   3.418   1.601   0.242
  634W        W 1324   2.082   0.707   2.148
  635W        W 1325   3.864   0.242   1.698
  636W        W 1326   4.788   3.884   2.180
  637W        W 1327   2.521   4.346   7.883
  638W        W 1328   0.253   3.439   8.364
  639W        W 1329   2.051   4.813   1.683
  640W        W 1330   2.046   3.442   7.389
  641W        W 1331   3.908   2.974   7.866
  642W        W 1332   4.350   3.888   2.156
  643W        W 1333   0.254   0.242   8.852
  644W        W 1334   1.143   1.160   0.746
  645W        W 1335   2.053   4.329   0.734
  646W        W 1336   0.704   3.435   9.312
  647W        W 1337   0.273   3.427   2.620
  648W        W 1338   2.511   2.074   8.365
  649W        W 1339   4.816   0.701   1.676
  650W        W 1340   1.605   3.887   1.689
  651W        W 1341   0.237   3.423   9.795
  652W        W 1342   2.994   0.263   2.160
  653W        W 1343   2.523   0.233   8.367
  654W        W 1344   3.872   3.440   2.660
  655W        W 1345   1.164   3.902   7.889
  656W        W 1346   2.955   4.776   8.350
  657W        W 1347   1.182   3.899   8.365
  658W        W 1348   2.522   4.357   2.629
  659W        W 1349   3.883   1.598   0.743
  660W        W 1350   4.784   2.076   0.246
  661W        W 1351   1.168   2.527   1.690
  662W        W 1352   2.538   2.078   0.760
  663W        W 1353   2.073   2.075   0.717
  664W        W 1354   2.086   3.896   1.215
  665W        W 1355   1.155   4.802   0.753
  666W        W 1356   1.629   0.721   1.216
  667W        W 1357   3.448   1.179   1.211
  668W        W 1358   0.715   2.068   8.356
  669W        W 1359   2.521   2.060   9.807
  670W        W 1360   1.177   4.778   8.347
  671W        W 1361   3.875   3.906   0.757
  672W        W 1362   3.433   0.256   0.252
  673W        W 1363   2.504   0.246   0.269
  674W        W 1364   1.619   0.259   0.274
  675W        W 1365   0.701   2.057   2.154
  676W        W 1366   1.178   0.267   1.217
  677W        W 1367   1.594   2.088   1.226
  678W        W 1368   1.165   2.959   8.373
  679W        W 1369   1.626   2.527   1.230
  680W        W 1370   4.320   4.787   8.335
  681W        W 1371   3.418   2.506   8.835
  682W        W 1372   2.519   1.601   7.412
  683W        W 1373   2.957   1.174   2.175
  684W        W 1374   2.990   4.330   8.359
  685W        W 1375   1.171   1.622   2.630
  686W        W 1376   2.063   3.897   9.326
  687W        W 1377   2.535   2.515   2.655
  688W        W 1378   2.998   1.166   9.322
  689W        W 1379   0.267   3.896   0.264
  690W        W 1380   3.888   3.900   2.152
  691W        W 1381   4.808   0.233   8.347
  692W        W 1382   0.268   4.788   7.860
  693W        W 1383   4.364   4.345   8.857
  694W        W 1384   4.808   3.416   8.344
  695W        W 1385   1.626   1.612   8.821
  696W        W 1386   0.233   3.881   0.761
  697W        W 1387   2.089   2.508   9.794
  698W        W 1388   1.150   0.690   8.835
  699W        W 1389   2.047   1.609   9.801
  700W        W 1390   4.779   2.537   9.311
  701W        W 1391   0.683   3.888   9.774
  702W        W 1392   2.508   2.961   1.236
  703W        W 1393   2.977   2.504   0.747
  704W        W 1394   0.694   2.994   8.815
  705W        W 1395   2.070   2.515   1.697
  706W        W 1396   0.705   1.629   9.804
  707W        W 1397   2.084   4.781   7.878
  708W        W 1398   2.091   1.141   8.817
  709W        W 1399   0.242   3.413   0.262
  710W        W 1400   3.905   0.235   7.397
  711W        W 1401   0.689   1.600   0.725
  712W        W 1402   4.352   4.348   2.189
  713W        W 1403   3.878   2.525   9.780
  714W        W 1404   3.435   4.800   9.305
  715W        W 1405   0.247   4.817   8.817
  716W        W 1406   4.773   0.270   2.147
  717W        W 1407   1.612   0.713   8.363
  718W        W 1408   2.057   0.259   1.233
  719W        W 1409   1.623   0.708   2.152
  720W        W 1410   2.523   2.070   2.164
  721W        W 1411   1.160   2.971   9.322
  722W        W 1412   1.169   1.609   0.739
  723W        W 1413   1.593   4.788   1.219
  724W        W 1414   0.718   2.526   7.879
  725W        W 1415   3.439   0.257   8.340
  726W        W 1416   2.989   3.902   7.904
  727W        W 1417   1.629   0.727   8.818
  728W        W 1418   2.518   4.806   2.175
  729W        W 1419   0.240   4.331   0.248
  730W        W 1420   0.714   3.439   7.412
  731W        W 1421   0.233   4.805   2.176
  732W        W 1422   1.162   4.347   9.804
  733W        W 1423   4.814   0.237   1.207
  734W        W 1424   3.871   2.997   9.797
  735W        W 1425   4.329   0.258   9.287
  736W        W 1426   2.534   1.601   9.286
  737W        W 1427   4.363   3.903   8.813
  738W        W 1428   0.709   0.255   9.771
  739W        W 1429   2.996   2.047   9.782
  740W        W 1430   2.515   0.245   1.669
  741W        W 1431   4.783   4.360   1.686
  742W        W 1432   1.625   4.330   0.726
  743W        W 1433   3.446   0.239   0.745
  744W        W 1434   2.970   2.969   9.776
  745W        W 1435   1.136   0.239   2.161
  746W        W 1436   4.776   1.137   8.842
  747W        W 1437   1.139   4.810   9.308
  748W        W 1438   2.523   4.333   0.730
  749W        W 1439   4.780   0.251   8.825
  750W        W 1440   0.241   1.160   7.865
  751W        W 1441   4.800   3.902   0.268
  752W        W 1442   1.172   4.327   0.732
  753W        W 1443   4.360   1.151   0.245
  754W        W 1444   1.629   1.627   0.754
  755W        W 1445   2.996   4.356   1.206
  756W        W 1446   1.598   4.795   0.760
  757W        W 1447   1.618   2.058   1.705
  758W        W 1448   1.167   3.446   1.234
  759W        W 1449   2.521   4.326   8.817
  760W        W 1450   2.540   1.160   9.319
  761W        W 1451   2.048   2.067   1.208
  762W        W 1452   1.168   0.238   1.673
  763W        W 1453   0.719   2.957   0.278
  764W        W 1454   4.333   2.065   1.698
  765W        W 1455   3.866   2.076   2.152
  766W        W 1456   2.977   0.230   7.868
  767W        W 1457   0.259   2.047   8.379
  768W        W 1458   4.798   2.046   2.145
  769W        W 1459   4.345   3.415   7.881
  770W        W 1460   4.319   2.991   1.191
  771W        W 1461   4.778   3.907   1.679
  772W        W 1462   4.331   3.871   0.252
  773W        W 1463   3.897   0.727   7.403
  774W        W 1464   4.349   0.264   0.241
  775W        W 1465   2.978   0.252   8.358
  776W        W 1466   0.229   1.596   8.371
  777W        W 1467   0.703   2.077   1.669
  778W        W 1468   3.415   3.442   2.167
  779W        W 1469   3.886   0.244   8.811
  780W        W 1470   3.422   4.808   8.853
  781W        W 1471   2.082   4.802   2.175
  782W        W 1472   3.448   2.082   7.865
  783W        W 1473   0.701   4.345   2.155
  784W        W 1474   0.272   3.909   2.170
  785W        W 1475   0.700   4.351   8.347
  786W        W 1476   3.415   1.609   8.352
  787W        W 1477   4.796   2.064   1.216
  788W        W 1478   3.423   0.233   9.312
  789W        W 1479   2.068   2.086   2.146
  790W        W 1480   1.158   3.412   1.703
  791W        W 1481   4.811   4.786   9.799
  792W        W 1482   1.165   3.871   1.192
  793W        W 1483   4.788   3.902   1.214
  794W        W 1484   0.705   4.362   0.271
  795W        W 1485   1.151   4.340   2.182
  796W        W 1486   3.420   4.794   1.201
  797W        W 1487   1.178   1.631   9.776
  798W        W 1488   1.173   3.410   9.287
  799W        W 1489   3.872   2.533   1.205
  800W        W 1490   0.252   0.244   0.262
  801W        W 1491   4.326   3.438   8.841
  802W        W 1492   2.513   2.966   0.257
  803W        W 1493   4.774   1.175   1.191
  804W        W 1494   0.248   2.955   9.797
  805W        W 1495   1.147   0.690   9.306
  806W        W 1496   3.454   4.320   0.753
  807W        W 1497   2.090   1.593   7.897
  808W        W 1498   2.958   2.989   1.206
  809W        W 1499   0.725   2.077   1.227
  810W        W 1500   2.537   2.540   7.393
  811W        W 1501   2.533   0.715   2.626
  812W        W 1502   3.907   4.796   9.807
  813W        W 1503   4.794   1.626   9.799
  814W        W 1504   1.143   0.720   0.730
  815W        W 1505   2.065   1.603   0.752
  816W        W 1506   3.447   3.434   0.250
  817W        W 1507   4.359   3.897   0.725
  818W        W 1508   3.887   3.895   7.876
  819W        W 1509   2.503   3.453   2.646
  820W        W 1510   3.904   3.417   8.341
  821W        W 1511   1.163   0.248   0.251
  822W        W 1512   4.806   0.270   7.399
  823W        W 1513   0.714   0.723   9.321
  824W        W 1514   0.266   3.444   7.395
  825W        W 1515   0.708   2.082   7.872
  826W        W 1516   3.426   4.346   9.790
  827W        W 1517   0.268   2.992   7.883
  828W        W 1518   2.515   4.360   9.322
  829W        W 1519   2.509   0.722   9.309
  830W        W 1520   2.993   2.514   9.306
  831W        W 1521   1.591   3.878   0.722
  832W        W 1522   4.775   0.721   9.777
  833W        W 1523   1.624   0.720   9.298
  834W        W 1524   0.688   1.631   8.344
  835W        W 1525   2.534   2.972   7.871
  836W        W 1526   1.165   3.881   9.807
  837W        W 1527   4.359   1.630   2.167
  838W        W 1528   4.783   2.962   2.153
  839W        W 1529   0.684   4.816   2.164
  840W        W 1530   0.691   1.150   7.864
  841W        W 1531   4.800   3.416   7.866
  842W        W 1532   0.242   2.061   0.266
  843W        W 1533   2.064   2.525   0.253
  844W        W 1534   2.516   3.420   8.372
  845W        W 1535   1.626   3.452   7.891
  846W        W 1536   4.348   1.178   0.736
  847W        W 1537   2.062   3.869   9.771
  848W        W 1538   0.688   3.874   1.698
  849W        W 1539   2.967   2.053   8.376
  850W        W 1540   1.618   1.616   9.804
  851W        W 1541   2.990   0.686   1.194
  852W        W 1542   0.685   1.181   2.147
  853W        W 1543   3.454   4.796   0.721
  854W        W 1544   1.164   2.532   0.265
  855W        W 1545   2.089   4.350   9.305
  856W        W 1546   3.440   2.989   2.639
  857W        W 1547   2.522   1.597   0.718
  858W        W 1548   2.505   4.319   2.164
  859W        W 1549   0.708   0.269   8.833
  860W        W 1550   1.621   2.987   2.151
  861W        W 1551   3.440   2.995   8.815
  862W        W 1552   0.235   0.237   9.304
  863W        W 1553   2.074   2.956   8.831
  864W        W 1554   2.509   3.435   0.248
  865W        W 1555   3.909   1.152   7.415
  866W        W 1556   2.520   2.067   2.639
  867W        W 1557   2.970   2.990   0.755
  868W        W 1558   2.519   0.248   2.166
  869W        W 1559   2.962   1.138   0.735
  870W        W 1560   4.785   0.256   7.900
  871W        W 1561   2.999   1.600   2.629
  872W        W 1562   1.625   1.165   2.647
  873W        W 1563   1.148   1.161   9.328
  874W        W 1564   3.882   2.091   9.312
  875W        W 1565   4.348   2.502   8.816
  876W        W 1566   2.994   4.337   1.711
  877W        W 1567   1.600   0.262   2.654
  878W        W 1568   3.437   4.350   2.152
  879W        W 1569   3.900   4.784   9.305
  880W        W 1570   0.682   2.964   9.782
  881W        W 1571   2.537   0.698   8.851
  882W        W 1572   4.805   3.898   9.305
  883W        W 1573   1.171   0.256   8.811
  884W        W 1574   1.626   0.242   9.329
  885W        W 1575   2.518   1.180   7.864
  886W        W 1576   4.792   0.231   1.709
  887W        W 1577   3.900   1.617   0.271
  888W        W 1578   3.412   2.958   1.703
  889W        W 1579   0.229   4.341   1.238
  890W        W 1580   3.422   4.336   1.209
  891W        W 1581   3.892   2.076   1.199
  892W        W 1582   3.871   0.712   1.208
  893W        W 1583   0.268   2.976   0.762
  894W        W 1584   0.255   2.532   1.692
  895W        W 1585   1.159   3.419   8.817
  896W        W 1586   1.635   3.442   0.240
  897W        W 1587   4.326   3.899   8.335
  898W        W 1588   2.974   4.813   7.866
  899W        W 1589   1.632   2.515   9.308
  900W        W 1590   0.271   0.259   0.736
  901W        W 1591   0.249   1.172   1.674
  902W        W 1592   1.604   4.344   0.259
  903W        W 1593   3.884   1.141   0.716
  904W        W 1594   1.604   0.245   3.097
  905W        W 1595   0.245   2.960   0.254
  906W        W 1596   4.782   1.605   0.246
  907W        W 1597   2.084   2.062   9.292
  908W        W 1598   4.320   2.059   2.184
  909W        W 1599   1.602   3.414   9.308
  910W        W 1600   2.990   2.537   1.681
  911W        W 1601   4.343   2.073   9.801
  912W        W 1602   4.776   2.996   8.824
  913W        W 1603   0.719   1.610   1.705
  914W        W 1604   4.352   1.142   8.349
  915W        W 1605   3.906   4.812   2.155
  916W        W 1606   3.449   4.775   7.395
  917W        W 1607   3.897   3.891   0.250
  918W        W 1608   2.981   1.621   2.149
  919W        W 1609   2.078   1.147   9.763
  920W        W 1610   0.712   4.817   0.745
  921W        W 1611   3.435   4.321   7.895
  922W        W 1612   3.875   4.780   1.192
  923W        W 1613   3.901   3.906   7.417
  924W        W 1614   3.428   2.524   2.633
  925W        W 1615   0.267   3.874   9.772
  926W        W 1616   2.073   0.231   7.869
  927W        W 1617   1.611   2.503   1.684
  928W        W 1618   2.977   1.591   0.280
  929W        W 1619   2.081   1.165   1.703
  930W        W 1620   2.534   3.903   1.236
  931W        W 1621   2.972   4.791   1.220
  932W        W 1622   2.052   4.792   8.841
  933W        W 1623   2.076   2.090   9.781
  934W        W 1624   4.331   2.059   7.868
  935W        W 1625   1.148   0.233   2.658
  936W        W 1626   1.609   0.242   2.189
  937W        W 1627   1.609   3.452   8.364
  938W        W 1628   1.168   1.627   1.672
  939W        W 1629   2.989   3.435   1.233
  940W        W 1630   3.450   1.159   9.774
  941W        W 1631   2.078   0.265   8.335
  942W        W 1632   1.154   4.327   9.323
  943W        W 1633   3.450   2.075   9.764
  944W        W 1634   3.892   0.722   9.807
  945W        W 1635   2.522   4.351   9.788
  946W        W 1636   3.868   1.601   2.160
  947W        W 1637   1.611   3.895   9.299
  948W        W 1638   1.181   4.813   8.842
  949W        W 1639   3.894   4.332   1.237
  950W        W 1640   4.323   1.631   1.674
  951W        W 1641   4.363   3.888   7.869
  952W        W 1642   1.611   0.715   2.645
  953W        W 1643   4.780   4.805   0.737
  954W        W 1644   0.255   3.424   1.689
  955W        W 1645   4.346   3.902   9.805
  956W        W 1646   0.682   2.967   1.687
  957W        W 1647   1.614   3.447   9.787
  958W        W 1648   2.088   4.339   9.778
  959W        W 1649   2.046   4.355   1.706
  960W        W 1650   0.268   1.620   9.784
  961W        W 1651   2.983   1.617   0.746
  962W        W 1652   4.814   1.154   0.245
  963W        W 1653   1.162   2.966   2.159
  964W        W 1654   4.774   0.709   0.756
  965W        W 1655   1.597   2.976   0.717
  966W        W 1656   4.345   3.420   2.168
  967W        W 1657   2.987   2.530   2.153
  968W        W 1658   2.510   4.817   1.674
  969W        W 1659   1.138   3.897   2.155
  970W        W 1660   4.816   4.349   0.732
  971W        W 1661   0.258   1.633   1.678
  972W        W 1662   1.632   3.900   9.768
  973W        W 1663   0.695   4.350   7.870
  974W        W 1664   0.715   2.538   8.371
  975W        W 1665   1.163   2.500   8.346
  976W        W 1666   0.245   3.422   2.174
  977W        W 1667   4.347   1.149   9.331
  978W        W 1668   4.793   3.866   9.776
  979W        W 1669   2.088   2.961   2.162
  980W        W 1670   2.085   3.418   8.347
  981W        W 1671   0.713   3.440   1.201
  982W        W 1672   2.075   3.889   7.868
  983W        W 1673   1.160   0.693   1.226
  984W        W 1674   2.064   0.269   1.707
  985W        W 1675   0.699   1.146   0.717
  986W        W 1676   3.895   4.789   8.812
  987W        W 1677   2.972   4.785   9.292
  988W        W 1678   3.417   2.979   8.361
  989W        W 1679   0.690   2.525   1.231
  990W        W 1680   4.326   2.051   7.424
  991W        W 1681   4.793   2.511   8.810
  992W        W 1682   2.992   0.245   1.200
  993W        W 1683   2.966   2.083   1.211
  994W        W 1684   2.071   1.600   8.347
  995W        W 1685   4.797   3.878   0.750
  996W        W 1686   1.594   2.076   8.338
  997W        W 1687   0.683   0.247   8.349
  998W        W 1688   1.146   4.320   8.848
  999W        W 1689   0.724   2.532   9.332
 1000W        W 1690   4.791   3.423   9.801
 1001W        W 1691   0.709   2.965   8.358
 1002W        W 1692   2.070   1.636   1.206
 1003W        W 1693   1.632   3.881   1.202
 1004W        W 1694   4.322   1.635   0.738
 1005W        W 1695   3.872   1.170   2.177
 1006W        W 1696   4.796   4.800   8.352
 1007W        W 1697   0.708   3.890   2.166
 1008W        W 1698   2.503   1.608   2.190
 1009W        W 1699   1.137   1.141   1.226
 1010W        W 1700   1.620   2.531   2.187
 1011W        W 1701   1.614   0.234   1.710
 1012W        W 1702   3.416   0.242   7.889
 1013W        W 1703   2.980   1.166   1.228
 1014W        W 1704   2.065   2.515   2.161
 1015W        W 1705   0.691   2.083   0.726
 1016W        W 1706   3.418   1.179   8.828
 1017W        W 1707   3.411   2.080   7.424
 1018W        W 1708   4.325   2.069   9.300
 1019W        W 1709   4.334   2.055   0.758
 1020W        W 1710   2.984   1.148   7.897
 1021W        W 1711   1.146   4.357   8.349
 1022W        W 1712   4.777   2.983   8.335
 1023W        W 1713   4.799   3.880   7.861
 1024W        W 1714   4.338   1.162   7.427
 1025W        W 1715   3.889   3.423   0.733
 1026W        W 1716   4.363   0.727   9.767
 1027W        W 1717   1.607   0.686   1.691
 1028W        W 1718   2.081   2.997   7.872
 1029W        W 1719   0.228   4.341   1.709
 1030W        W 1720   4.339   0.260   0.752
 1031W        W 1721   0.713   4.344   1.707
 1032W        W 1722   3.903   2.076   8.837
 1033W        W 1723   4.337   3.442   1.200
 1034W        W 1724   2.079   3.431   1.695
 1035W        W 1725   0.245   0.725   8.346
 1036W        W 1726   2.086   0.701   0.761
 1037W        W 1727   1.617   1.606   7.900
 1038W        W 1728   3.903   0.235   9.302
 1039W        W 1729   1.631   2.544   8.831
 1040W        W 1730   2.966   3.885   1.675
 1041W        W 1731   3.894   3.449   2.161
 1042W        W 1732   1.617   2.531   8.372
 1043W        W 1733   4.328   2.529   1.700
 1044W        W 1734   0.251   4.338   8.357
 1045W        W 1735   2.532   2.504   0.253
 1046W        W 1736   1.159   3.909   1.702
 1047W        W 1737   4.342   2.046   0.242
 1048W        W 1738   2.073   2.960   9.807
 1049W        W 1739   3.869   0.254   7.860
 1050W        W 1740   1.621   1.635   7.387
 1051W        W 1741   2.542   1.152   8.813
 1052W        W 1742   0.684   1.626   1.238
 1053W        W 1743   3.865   0.708   1.710
 1054W        W 1744   3.876   0.689   9.320
 1055W        W 1745   2.067   0.242   7.388
 1056W        W 1746   3.448   1.606   1.702
 1057W        W 1747   4.773   1.610   1.220
 1058W        W 1748   3.424   4.803   1.688
 1059W        W 1749   0.241   1.150   0.761
 1060W        W 1750   3.889   4.324   0.725
 1061W        W 1751   3.892   3.901   2.662
 1062W        W 1752   2.087   0.683   9.799
 1063W        W 1753   4.332   0.236   1.696
 1064W        W 1754   0.698   3.440   1.707
 1065W        W 1755   4.322   1.627   9.766
 1066W        W 1756   2.957   4.800   0.266
 1067W        W 1757   1.138   3.450   7.875
 1068W        W 1758   2.520   2.501   9.295
 1069W        W 1759   4.359   1.608   8.848
 1070W        W 1760   0.239   0.683   8.840
 1071W        W 1761   0.263   2.987   2.660
 1072W        W 1762   0.713   2.542   0.750
 1073W        W 1763   2.501   4.332   8.337
 1074W        W 1764   0.267   4.811   2.661
 1075W        W 1765   0.706   3.415   2.167
 1076W        W 1766   1.605   4.332   1.676
 1077W        W 1767   3.448   4.332   2.648
 1078W        W 1768   1.618   2.528   7.427
 1079W        W 1769   0.231   2.521   9.806
 1080W        W 1770   2.063   3.423   9.312
 1081W        W 1771   3.875   2.514   2.157
 1082W        W 1772   3.440   2.990   1.214
 1083W        W 1773   3.434   2.520   2.147
 1084W        W 1774   2.992   2.055   0.252
 1085W        W 1775   1.144   2.084   7.891
 1086W        W 1776   1.159   2.514   1.224
 1087W        W 1777   0.271   1.168   1.238
 1088W        W 1778   4.338   2.987   0.724
 1089W        W 1779   4.352   1.156   7.870
 1090W        W 1780   0.251   2.975   9.317
 1091W        W 1781   4.350   2.972   9.772
 1092W        W 1782   0.247   2.083   8.812
 1093W        W 1783   1.613   2.995   7.409
 1094W        W 1784   2.089   3.454   2.149
 1095W        W 1785   3.416   2.535   0.252
 1096W        W 1786   0.684   0.252   1.694
 1097W        W 1787   4.328   1.140   8.840
 1098W        W 1788   4.773   3.436   1.676
 1099W        W 1789   2.061   4.810   9.796
 1100W        W 1790   3.419   3.431   8.836
 1101W        W 1791   2.982   0.710   0.254
 1102W        W 1792   2.973   1.142   2.631
 1103W        W 1793   2.061   2.523   1.191
 1104W        W 1794   3.892   2.524   7.423
 1105W        W 1795   1.631   0.683   9.773
 1106W        W 1796   3.411   4.818   0.254
 1107W        W 1797   0.720   2.984   9.302
 1108W        W 1798   3.868   0.727   8.365
 1109W        W 1799   1.607   1.141   1.236
 1110W        W 1800   3.888   0.271   8.360
 1111W        W 1801   0.717   1.633   7.893
 1112W        W 1802   0.698   0.233   7.862
 1113W        W 1803   1.624   3.420   8.818
 1114W        W 1804   2.990   0.243   1.709
 1115W        W 1805   2.540   4.800   9.316
 1116W        W 1806   2.054   3.888   2.155
 1117W        W 1807   4.792   1.596   8.825
 1118W        W 1808   3.872   3.872   1.698
 1119W        W 1809   0.258   3.882   7.407
 1120W        W 1810   4.814   0.727   7.866
 1121W        W 1811   1.616   2.992   9.309
 1122W        W 1812   4.356   1.625   1.230
 1123W        W 1813   2.995   2.046   2.189
 1124W        W 1814   1.176   2.965   8.852
 1125W        W 1815   1.605   3.876   8.365
 1126W        W 1816   1.177   4.362   7.384
 1127W        W 1817   3.438   3.437   9.786
 1128W        W 1818   1.172   2.065   2.164
 1129W        W 1819   1.163   0.253   9.299
 1130W        W 1820   2.958   3.413   8.833
 1131W        W 1821   2.983   2.523   0.253
 1132W        W 1822   1.611   2.090   0.251
 1133W        W 1823   1.594   0.726   7.416
 1134W        W 1824   1.146   4.329   2.629
 1135W        W 1825   2.532   3.877   0.247
 1136W        W 1826   0.711   3.871   1.198
 1137W        W 1827   3.873   1.175   9.781
 1138W        W 1828   3.872   3.447   9.804
 1139W        W 1829   4.801   1.600   9.305
 1140W        W 1830   0.234   2.065   9.318
 1141W        W 1831   3.866   3.892   1.192
 1142W        W 1832   4.342   2.509   1.204
 1143W        W 1833   0.251   3.447   1.205
 1144W        W 1834   1.160   4.806   1.698
 1145W        W 1835   3.899   2.971   0.742
 1146W        W 1836   3.882   3.892   8.342
 1147W        W 1837   3.882   1.167   7.862
 1148W        W 1838   4.332   4.780   8.828
 1149W        W 1839   2.524   2.966   1.684
 1150W        W 1840   3.427   1.620   2.634
 1151W        W 1841   2.542   2.053   9.326
 1152W        W 1842   2.540   0.690   1.677
 1153W        W 1843   0.228   3.896   1.710
 1154W        W 1844   2.082   4.357   2.147
 1155W        W 1845   1.164   0.715   2.189
 1156W        W 1846   4.812   2.540   0.244
 1157W        W 1847   2.960   4.812   2.179
 1158W        W 1848   0.721   1.619   2.173
 1159W        W 1849   2.963   1.618   7.861
 1160W        W 1850   3.430   4.818   9.800
 1161W        W 1851   2.050   4.802   1.218
 1162W        W 1852   4.352   0.703   2.649
 1163W        W 1853   1.147   1.621   1.233
 1164W        W 1854   1.622   1.162   8.357
 1165W        W 1855   2.084   2.059   8.380
 1166W        W 1856   2.080   4.328   7.895
 1167W        W 1857   3.426   2.522   9.773
 1168W        W 1858   3.893   4.321   7.417
 1169W        W 1859   2.957   3.896   0.734
 1170W        W 1860   1.160   3.432   0.280
 1171W        W 1861   2.522   1.596   7.866
 1172W        W 1862   4.795   2.980   2.637
 1173W        W 1863   0.230   4.339   9.325
 1174W        W 1864   2.078   2.050   7.898
 1175W        W 1865   3.437   4.343   7.409
 1176W        W 1866   2.504   4.774   7.406
 1177W        W 1867   3.898   2.501   8.844
 1178W        W 1868   0.707   0.238   0.241
 1179W        W 1869   2.542   1.168   2.190
 1180W        W 1870   4.361   4.810   7.868
 1181W        W 1871   0.684   0.258   0.761
 1182W        W 1872   4.357   2.542   2.663
 1183W        W 1873   3.907   0.268   1.228
 1184W        W 1874   3.432   2.500   1.227
 1185W        W 1875   0.260   4.785   0.744
 1186W        W 1876   3.879   4.334   0.285
 1187W        W 1877   4.340   1.609   9.303
 1188W        W 1878   4.774   2.507   2.185
 1189W        W 1879   4.786   2.510   1.212
 1190W        W 1880   1.141   2.991   9.768
 1191W        W 1881   3.864   4.350   2.155
 1192W        W 1882   4.362   0.251   7.428
 1193W        W 1883   4.319   4.327   1.670
 1194W        W 1884   1.601   4.353   9.770
 1195W        W 1885   1.603   1.602   2.154
 1196W        W 1886   1.594   1.610   8.342
 1197W        W 1887   4.356   0.263   9.776
 1198W        W 1888   0.687   3.425   8.834
 1199W        W 1889   4.808   2.986   0.726
 1200W        W 1890   1.592   0.694   3.108
 1201W        W 1891   2.528   1.175   2.656
 1202W        W 1892   3.901   3.414   1.209
 1203W        W 1893   2.511   3.877   2.150
 1204W        W 1894   0.690   3.887   8.822
 1205W        W 1895   4.813   3.423   2.144
 1206W        W 1896   3.417   1.622   8.851
 1207W        W 1897   3.419   3.881   8.378
 1208W        W 1898   4.796   2.978   9.290
 1209W        W 1899   4.324   1.631   0.268
 1210W        W 1900   1.617   2.980   8.334
 1211W        W 1901   2.062   0.721   0.261
 1212W        W 1902   2.508   4.351   7.384
 1213W        W 1903   0.255   2.054   9.765
 1214W        W 1904   3.421   3.421   8.370
 1215W        W 1905   3.419   1.153   1.681
 1216W        W 1906   2.524   2.056   7.393
 1217W        W 1907   3.877   0.695   0.257
 1218W        W 1908   4.360   2.998   8.826
 1219W        W 1909   4.811   2.541   7.899
 1220W        W 1910   2.992   2.983   8.362
 1221W        W 1911   1.176   0.710   0.269
 1222W        W 1912   0.268   3.442   0.725
 1223W        W 1913   1.594   3.900   8.821
 1224W        W 1914   0.249   1.595   1.209
 1225W        W 1915   4.806   0.685   8.849
 1226W        W 1916   4.325   0.700   7.878
 1227W        W 1917   0.233   2.088   2.174
 1228W        W 1918   0.254   3.887   1.206
 1229W        W 1919   1.598   3.414   1.683
 1230W        W 1920   1.622   1.145   8.847
 1231W        W 1921   0.705   3.454   0.261
 1232W        W 1922   3.864   0.691   6.936
 1233W        W 1923   2.966   2.061   7.903
 1234W        W 1924   1.150   1.627   8.837
 1235W        W 1925   2.986   3.867   0.258
 1236W        W 1926   3.886   2.514   0.733
 1237W        W 1927   4.803   2.061   8.851
 1238W        W 1928   4.784   1.175   2.186
 1239W        W 1929   1.592   0.253   0.728
 1240W        W 1930   0.697   0.720   1.201
 1241W        W 1931   1.159   2.077   8.829
 1242W        W 1932   3.415   0.688   2.167
 1243W        W 1933   4.782   3.899   8.836
 1244W        W 1934   2.542   0.236   9.773
 1245W        W 1935   3.447   3.892   2.182
 1246W        W 1936   4.357   2.972   3.108
 1247W        W 1937   4.774   4.810   9.324
 1248W        W 1938   2.502   3.889   1.672
 1249W        W 1939   4.812   2.971   0.240
 1250W        W 1940   1.604   4.786   9.766
 1251W        W 1941   0.713   4.355   9.801
 1252W        W 1942   2.959   3.453   0.246
 1253W        W 1943   1.158   0.705   8.360
 1254W        W 1944   2.066   3.869   8.814
 1255W        W 1945   1.181   0.256   6.915
 1256W        W 1946   2.056   1.139   1.203
 1257W        W 1947   2.078   4.776   0.250
 1258W        W 1948   2.527   0.234   0.752
 1259W        W 1949   1.169   2.052   1.211
 1260W        W 1950   2.070   2.519   8.835
 1261W        W 1951   2.979   0.693   8.361
 1262W        W 1952   2.544   4.815   2.645
 1263W        W 1953   2.066   1.629   9.323
 1264W        W 1954   0.263   1.620   0.260
 1265W        W 1955   2.991   3.450   7.903
 1266W        W 1956   4.329   0.725   0.246
 1267W        W 1957   0.699   1.599   0.262
 1268W        W 1958   3.874   3.897   8.837
 1269W        W 1959   3.886   4.342   8.819
 1270W        W 1960   4.790   1.595   7.860
 1271W        W 1961   4.325   4.354   8.378
 1272W        W 1962   3.412   3.413   1.238
 1273W        W 1963   2.971   1.600   1.693
 1274W        W 1964   3.430   0.686   7.393
 1275W        W 1965   0.249   1.156   2.189
 1276W        W 1966   4.812   2.966   1.707
 1277W        W 1967   1.153   2.526   8.818
 1278W        W 1968   3.888   2.083   1.711
 1279W        W 1969   1.166   2.540   7.418
 1280W        W 1970   3.879   1.145   8.824
 1281W        W 1971   1.180   2.070   9.783
 1282W        W 1972   2.074   2.074   1.675
 1283W        W 1973   1.153   2.071   0.278
 1284W        W 1974   0.689   0.682   9.807
 1285W        W 1975   2.524   3.904   8.376
 1286W        W 1976   2.510   2.504   1.691
 1287W        W 1977   2.053   0.265   0.732
 1288W        W 1978   1.629   2.512   9.801
 1289W        W 1979   3.879   0.688   2.176
 1290W        W 1980   3.430   3.889   0.761
 1291W        W 1981   2.075   1.168   2.152
 1292W        W 1982   4.344   0.257   8.336
 1293W        W 1983   3.883   4.787   7.878
 1294W        W 1984   3.441   4.320   8.836
 1295W        W 1985   4.794   0.685   7.399
 1296W        W 1986   1.153   3.886   0.749
 1297W        W 1987   2.514   2.536   2.151
 1298W        W 1988   1.600   2.081   9.314
 1299W        W 1989   1.138   0.727   9.785
 1300W        W 1990   0.690   3.885   9.292
 1301W        W 1991   3.426   0.710   8.375
 1302W        W 1992   2.545   1.178   1.672
 1303W        W 1993   1.164   3.416   9.807
 1304W        W 1994   2.539   2.516   0.734
 1305W        W 1995   0.712   0.250   9.329
 1306W        W 1996   1.621   4.775   1.668
 1307W        W 1997   2.538   1.178   9.809
 1308W        W 1998   0.724   1.176   1.235
 1309W        W 1999   1.618   1.145   0.257
 1310W        W 2000   3.878   4.801   8.343
 1311W        W 2001   3.436   2.964   0.265
 1312W        W 2002   2.070   1.142   7.883
 1313W        W 2003   1.623   1.167   9.296
 1314W        W 2004   2.508   3.424   1.691
 1315W        W 2005   0.696   4.330   9.307
 1316W        W 2006   2.531   0.712   7.418
 1317W        W 2007   2.999   2.501   8.815
 1318W        W 2008   2.529   3.433   7.871
 1319W        W 2009   1.161   3.410   7.408
 1320W        W 2010   0.725   1.168   1.702
 1321W        W 2011   2.990   4.791   9.764
 1322W        W 2012   4.327   1.609   8.346
 1323W        W 2013   2.506   2.972   9.763
 1324W        W 2014   2.535   2.966   8.354
 1325W        W 2015   3.889   3.413   1.713
 1326W        W 2016   3.868   4.787   0.270
 1327W        W 2017   3.413   2.065   8.346
 1328W        W 2018   0.261   1.594   9.301
 1329W        W 2019   2.541   1.170   0.737
 1330W        W 2020   2.991   1.139   9.783
 1331W        W 2021   0.702   1.594   9.303
 1332W        W 2022   3.454   4.344   1.703
 1333W        W 2023   2.540   0.263   9.295
 1334W        W 2024   1.612   0.233   8.366
 1335W        W 2025   1.179   0.256   9.773
 1336W        W 2026   3.864   3.876   9.778
 1337W        W 2027   3.433   2.957   2.151
 1338W        W 2028   3.867   4.341   9.804
 1339W        W 2029   0.698   0.726   0.264
 1340W        W 2030   1.157   1.164   0.264
 1341W        W 2031   0.694   4.781   8.356
 1342W        W 2032   2.960   4.351   0.269
 1343W        W 2033   4.321   2.955   1.700
 1344W        W 2034   1.606   1.156   7.868
 1345W        W 2035   3.427   3.892   7.398
 1346W        W 2036   2.978   0.696   7.866
 1347W        W 2037   1.625   4.354   2.175
 1348W        W 2038   4.328   2.970   7.868
 1349W        W 2039   1.161   0.726   2.621
 1350W        W 2040   4.774   1.601   1.669
 1351W        W 2041   1.602   4.798   2.188
 1352W        W 2042   1.602   1.627   1.685
 1353W        W 2043   3.425   1.628   7.390
 1354W        W 2044   0.718   3.900   8.377
 1355W        W 2045   2.994   2.050   9.293
 1356W        W 2046   2.541   3.442   9.773
 1357W        W 2047   3.425   0.256   9.796
 1358W        W 2048   1.615   3.413   1.208
 1359W        W 2049   2.052   2.986   0.730
 1360W        W 2050   1.145   2.051   7.417
 1361W        W 2051   2.543   0.248   1.213
 1362W        W 2052   0.273   1.605   7.900
 1363W        W 2053   1.624   4.778   8.820
 1364W        W 2054   2.079   1.617   2.645
 1365W        W 2055   2.523   2.999   0.716
 1366W        W 2056   4.790   2.528   8.369
 1367W        W 2057   3.417   2.956   9.788
 1368W        W 2058   1.628   0.266   8.821
 1369W        W 2059   4.322   4.817   0.276
 1370W        W 2060   2.984   3.883   9.296
 1371W        W 2061   3.421   3.450   9.320
 1372W        W 2062   3.901   0.716   7.899
 1373W        W 2063   1.155   1.628   0.285
 1374W        W 2064   1.149   3.899   9.313
 1375NA      NA 2065   4.354   1.168   1.677
 1376NA      NA 2066   2.987   2.514   9.802
 1377NA      NA 2067   0.266   0.257   7.890
 1378NA      NA 2068   2.072   0.247   9.304
 1379NA      NA 2069   2.526   4.362   1.199
 1380NA      NA 2070   1.157   2.081   8.336
 1381NA      NA 2071   0.683   3.449   8.353
 1382NA      NA 2072   2.504   0.695   7.901
 1383NA      NA 2073   2.996   1.145   1.683
 1384NA      NA 2074   0.262   2.503   0.284
 1385NA      NA 2075   4.341   2.503   8.372
 1386NA      NA 2076   2.524   1.160   0.276
 1387NA      NA 2077   0.263   0.255   9.809
 1388NA      NA 2078   3.873   2.061   8.374
 1389CL      CL 2079   3.451   3.882   0.264
 1390CL      CL 2080   1.182   1.179   7.880
 1391CL      CL 2081   2.081   2.526   7.894
 1392CL      CL 2082   0.718   4.343   1.222
 1393CL      CL 2083   2.530   3.874   0.730
 1394CL      CL 2084   0.706   2.517   8.853
 1395CL      CL 2085   1.159   2.543   0.740
 1396CL      CL 2086   3.446   4.813   8.349
 1397CL      CL 2087   4.337   0.695   1.205
 1398CL      CL 2088   2.512   2.066   7.895
 1399CL      CL 2089   4.789   3.446   9.311
 1400CL      CL 2090   1.175   0.270   0.755
 1401CL      CL 2091   3.865   0.265   0.746
 1402CL      CL 2092   2.085   0.710   1.704
   5.00000   5.00000  10.00000
