INSANE! Membrane UpperLeaflet>CER6:POPC=30.0:70.0 LowerLeaflet>CER6:POPC=30.0:70.0
 2092
    1CER6   NOH    1   2.396   2.501   7.473 -0.0551 -0.0843  0.0244
    1CER6    OH    2   2.177   2.363   7.699  0.0543  0.2137  0.3806
    1CER6   GLA    3   2.628   2.646   7.386 -0.0657 -0.1272  0.4965
    1CER6   GLB    4   2.242   2.252   7.429 -0.2785 -0.0876 -0.3482
    1CER6   C1A    5   2.508   2.455   6.785  0.0073 -0.0475  0.0572
    1CER6   C2A    6   2.050   2.392   6.420  0.0698  0.1143 -0.0247
    1CER6   C1B    7   2.130   2.536   7.084  0.0781  0.1599 -0.0714
    1CER6   C2B    8   1.966   2.805   6.633 -0.0916 -0.1795 -0.2417
    2CER6   NOH    9   1.140   2.827   7.742 -0.0133  0.2133  0.0087
    2CER6    OH   10   1.343   3.091   7.935  0.5422 -0.1114  0.2482
    2CER6   GLA   11   1.068   2.522   7.734 -0.1003 -0.0385 -0.0711
    2CER6   GLB   12   1.072   3.126   7.798 -0.3691 -0.0178  0.0808
    2CER6   C1A   13   1.039   2.482   7.126  0.2406 -0.2167 -0.0262
    2CER6   C2A   14   1.358   2.142   6.850 -0.0778 -0.2053  0.1846
    2CER6   C1B   15   1.052   3.161   7.385 -0.0306 -0.1769 -0.1186
    2CER6   C2B   16   0.975   3.483   6.960  0.0932  0.1965  0.1625
    3CER6   NOH   17   0.249   2.731   7.652  0.0424 -0.1055  0.4348
    3CER6    OH   18  -0.101   2.595   7.712 -0.1243  0.2901  0.0347
    3CER6   GLA   19   0.099   2.990   7.608  0.0789  0.1449  0.0829
    3CER6   GLB   20   0.108   2.458   7.571  0.0261 -0.1711  0.1903
    3CER6   C1A   21  -0.208   2.885   7.128  0.0112 -0.0077 -0.2637
    3CER6   C2A   22  -0.264   2.950   6.653 -0.0881  0.2731 -0.1544
    3CER6   C1B   23   0.336   2.611   7.211  0.2181 -0.0966  0.0928
    3CER6   C2B   24   0.185   2.899   6.799 -0.1804 -0.1305  0.0459
    4CER6   NOH   25   0.797   0.148   7.601 -0.1404  0.1364 -0.0398
    4CER6    OH   26   0.427   0.215   7.681 -0.0729  0.0287 -0.3164
    4CER6   GLA   27   0.998  -0.061   7.630  0.5653  0.0048  0.0044
    4CER6   GLB   28   0.576   0.184   7.415 -0.1122  0.1597 -0.0044
    4CER6   C1A   29   1.028   0.273   7.090  0.2321  0.2409 -0.0045
    4CER6   C2A   30   0.900   0.311   6.536  0.1624  0.1614 -0.0286
    4CER6   C1B   31   0.615   0.069   6.973  0.1291  0.0221  0.1180
    4CER6   C2B   32   0.385  -0.313   6.613 -0.2053 -0.1074  0.2009
    5CER6   NOH   33   3.187   4.276   7.665 -0.0647  0.2463  0.1235
    5CER6    OH   34   3.197   4.638   7.771 -0.0229  0.2547  0.4088
    5CER6   GLA   35   3.299   3.989   7.548  0.3110 -0.3982 -0.1221
    5CER6   GLB   36   3.148   4.519   7.532  0.0271 -0.1250  0.1996
    5CER6   C1A   37   3.608   4.150   7.097  0.1962 -0.1061  0.0788
    5CER6   C2A   38   3.525   4.263   6.595 -0.1051  0.2812  0.0301
    5CER6   C1B   39   3.101   4.189   7.176  0.1834  0.0262  0.2069
    5CER6   C2B   40   2.752   3.805   7.010 -0.2197  0.1818  0.1716
    6CER6   NOH   41   0.305   1.091   7.260 -0.3386  0.0350 -0.1310
    6CER6    OH   42   0.648   0.942   7.328  0.3070 -0.1655 -0.2898
    6CER6   GLA   43   0.078   1.285   7.326  0.3216 -0.1904 -0.2617
    6CER6   GLB   44   0.493   0.966   7.050 -0.3164  0.0159 -0.0104
    6CER6   C1A   45  -0.164   1.400   6.798  0.0426 -0.0937 -0.0803
    6CER6   C2A   46  -0.177   1.468   6.221  0.0859  0.0390 -0.2095
    6CER6   C1B   47   0.161   1.004   6.773 -0.1161  0.1411  0.2454
    6CER6   C2B   48  -0.256   1.047   6.430  0.2589  0.1262 -0.2053
    7CER6   NOH   49   3.400   0.694   7.459 -0.0561  0.0611  0.0052
    7CER6    OH   50   3.307   1.015   7.513 -0.0855  0.0234  0.2123
    7CER6   GLA   51   3.435   0.401   7.527 -0.2175  0.2567  0.3310
    7CER6   GLB   52   3.484   0.918   7.331 -0.0047 -0.0621  0.3103
    7CER6   C1A   53   3.393   0.138   7.011 -0.1959 -0.4447 -0.0537
    7CER6   C2A   54   3.036   0.199   6.584  0.0116 -0.6656 -0.0887
    7CER6   C1B   55   3.496   0.969   6.901  0.2230  0.0008 -0.2052
    7CER6   C2B   56   3.461   1.156   6.391 -0.0210 -0.0745 -0.0215
    8CER6   NOH   57   1.780   2.963   7.561  0.1425 -0.0313 -0.1909
    8CER6    OH   58   1.929   2.659   7.675  0.1355  0.4642 -0.5796
    8CER6   GLA   59   1.634   3.213   7.675  0.2385  0.1575  0.0049
    8CER6   GLB   60   2.016   2.841   7.472  0.1969  0.1570 -0.2142
    8CER6   C1A   61   1.400   3.427   7.139  0.1196 -0.0398  0.2967
    8CER6   C2A   62   1.336   3.338   6.543  0.2091  0.0949  0.0988
    8CER6   C1B   63   1.765   3.084   7.137 -0.1680  0.3730  0.1620
    8CER6   C2B   64   1.422   2.941   6.827  0.0935  0.0162 -0.1420
    9CER6   NOH   65   2.613   3.694   7.543  0.4455 -0.2675 -0.1552
    9CER6    OH   66   2.385   3.643   7.778  0.1391  0.2698 -0.0388
    9CER6   GLA   67   2.859   3.784   7.460 -0.5294  0.2098 -0.2181
    9CER6   GLB   68   2.322   3.781   7.520 -0.1022 -0.3892  0.0525
    9CER6   C1A   69   2.645   4.291   7.286 -0.3030  0.3403  0.1883
    9CER6   C2A   70   2.451   4.601   6.870  0.1307  0.0710 -0.2903
    9CER6   C1B   71   2.304   3.659   7.046 -0.0227  0.2001 -0.0097
    9CER6   C2B   72   2.513   3.756   6.487 -0.0443  0.0714  0.2100
   10CER6   NOH   73   1.174   1.391   7.445 -0.1130 -0.0383 -0.1225
   10CER6    OH   74   1.047   1.225   7.774 -0.1724 -0.1778 -0.1605
   10CER6   GLA   75   1.187   1.695   7.433  0.2101  0.0203  0.2093
   10CER6   GLB   76   1.286   1.180   7.621 -0.1604  0.2042 -0.0066
   10CER6   C1A   77   1.140   1.641   6.829  0.1583  0.0384  0.0701
   10CER6   C2A   78   1.225   1.983   6.362  0.0959  0.0241  0.0683
   10CER6   C1B   79   1.623   1.247   7.304  0.1552  0.1877  0.1739
   10CER6   C2B   80   1.605   1.306   6.766  0.0193  0.2326  0.4360
   11POPC   NC3   81   0.219   1.077   7.709  0.0005  0.1814  0.0707
   11POPC   PO4   82  -0.189   1.131   7.681 -0.3318 -0.1045 -0.2214
   11POPC   GL1   83  -0.484   0.998   7.446 -0.3685 -0.2220  0.0595
   11POPC   GL2   84  -0.289   0.986   7.152 -0.0808 -0.1067  0.2129
   11POPC   C1A   85  -0.610   1.266   7.169 -0.4366 -0.3769 -0.1572
   11POPC   D2A   86  -0.643   1.336   6.638 -0.0703  0.1269  0.0615
   11POPC   C3A   87  -0.647   1.682   6.464 -0.1581 -0.0501  0.0672
   11POPC   C4A   88  -0.576   2.133   6.089  0.3153  0.2859  0.2317
   11POPC   C1B   89  -0.465   0.895   6.869  0.2096  0.1854 -0.0406
   11POPC   C2B   90  -0.705   0.803   6.494  0.1707 -0.1165 -0.1240
   11POPC   C3B   91  -0.906   0.832   6.020  0.2913  0.3515  0.2488
   11POPC   C4B   92  -1.060   1.145   5.756  0.1351  0.1919  0.0604
   12POPC   NC3   93   1.775   4.182   7.528  0.3876 -0.0716 -0.2889
   12POPC   PO4   94   1.426   4.284   7.727  0.1776 -0.1370  0.0623
   12POPC   GL1   95   1.255   4.087   7.333 -0.3581 -0.1189 -0.1230
   12POPC   GL2   96   1.046   4.273   7.224 -0.0915 -0.3279  0.0400
   12POPC   C1A   97   1.337   3.891   6.897  0.2372  0.3283  0.1120
   12POPC   D2A   98   1.204   3.827   6.424 -0.1181  0.2828  0.2555
   12POPC   C3A   99   0.845   3.854   6.083 -0.2283 -0.2175  0.0090
   12POPC   C4A  100   0.541   3.387   6.011  0.1606  0.0778  0.0819
   12POPC   C1B  101   0.830   4.016   7.094  0.3284 -0.1067  0.3768
   12POPC   C2B  102   0.761   3.896   6.706  0.0688  0.0407  0.2689
   12POPC   C3B  103   0.443   3.721   6.326 -0.3317 -0.0356  0.2986
   12POPC   C4B  104   0.131   3.805   5.987  0.1106 -0.2117  0.2360
   13POPC   NC3  105   3.863   3.518   7.827 -0.0483 -0.1330 -0.0513
   13POPC   PO4  106   3.543   3.695   7.772  0.2538 -0.0304  0.1475
   13POPC   GL1  107   3.457   3.428   7.419  0.1648  0.0505  0.4088
   13POPC   GL2  108   3.162   3.487   7.477 -0.3045  0.0845 -0.2843
   13POPC   C1A  109   3.544   3.450   6.987 -0.0050  0.0126  0.1517
   13POPC   D2A  110   3.393   3.312   6.531  0.1522  0.0726  0.1584
   13POPC   C3A  111   3.468   2.926   6.246  0.2627  0.0541 -0.0658
   13POPC   C4A  112   3.692   2.630   5.900 -0.0567 -0.1078 -0.3100
   13POPC   C1B  113   3.207   3.694   7.198 -0.1693 -0.1522  0.0247
   13POPC   C2B  114   3.243   3.819   6.817 -0.0543 -0.1768  0.0590
   13POPC   C3B  115   3.271   3.906   6.334 -0.2317  0.3233  0.0630
   13POPC   C4B  116   3.232   3.873   5.876  0.3561 -0.0643  0.0370
   14POPC   NC3  117   3.004   2.165   8.073 -0.0987  0.2891  0.0894
   14POPC   PO4  118   3.287   2.102   7.747 -0.1199 -0.0516 -0.0164
   14POPC   GL1  119   3.354   2.012   7.423 -0.0546  0.2902  0.0210
   14POPC   GL2  120   3.129   1.963   7.273 -0.0830 -0.2562  0.1735
   14POPC   C1A  121   3.712   2.145   7.189  0.0090  0.1805  0.1257
   14POPC   D2A  122   3.990   2.484   6.858  0.1076  0.1275 -0.1366
   14POPC   C3A  123   4.141   2.538   6.403  0.1235  0.0821 -0.0684
   14POPC   C4A  124   4.139   2.898   6.064 -0.0649 -0.0078  0.3122
   14POPC   C1B  125   3.235   2.217   7.019 -0.0602  0.1478  0.0330
   14POPC   C2B  126   3.025   2.318   6.663 -0.0800  0.3185 -0.3445
   14POPC   C3B  127   2.736   2.433   6.300 -0.0212 -0.1256  0.0984
   14POPC   C4B  128   2.714   2.818   5.978 -0.1417  0.2408  0.0400
   15POPC   NC3  129   3.042   0.507   7.899 -0.0718  0.2420 -0.3135
   15POPC   PO4  130   2.982   0.757   7.642  0.2070 -0.2023  0.0615
   15POPC   GL1  131   3.069   0.465   7.246  0.1695 -0.2732  0.0474
   15POPC   GL2  132   3.173   0.658   7.087  0.3892  0.0892 -0.0018
   15POPC   C1A  133   2.914   0.189   7.040  0.0762 -0.0764 -0.2345
   15POPC   D2A  134   2.852  -0.227   6.750 -0.0788 -0.4108  0.2316
   15POPC   C3A  135   2.751  -0.312   6.277 -0.1361 -0.0821  0.3031
   15POPC   C4A  136   2.587  -0.505   5.856  0.0278  0.0773 -0.1654
   15POPC   C1B  137   3.262   0.614   6.690  0.1122 -0.2553 -0.2543
   15POPC   C2B  138   3.205   0.621   6.302 -0.0044 -0.1047 -0.1500
   15POPC   C3B  139   3.309   0.368   5.883 -0.0154  0.0325 -0.1097
   15POPC   C4B  140   3.562  -0.083   5.685 -0.1095 -0.1576 -0.0419
   16POPC   NC3  141   1.064   3.970   7.776  0.2353 -0.1275 -0.1625
   16POPC   PO4  142   0.690   3.738   7.715  0.1550 -0.0520 -0.0248
   16POPC   GL1  143   0.721   3.639   7.289 -0.2402 -0.3463  0.0064
   16POPC   GL2  144   0.664   3.369   7.336  0.3148 -0.2244  0.0150
   16POPC   C1A  145   0.407   3.872   7.096 -0.0770 -0.0858  0.0271
   16POPC   D2A  146   0.057   3.666   6.798  0.5811 -0.4280  0.2079
   16POPC   C3A  147  -0.105   3.895   6.435 -0.0736 -0.1387  0.2268
   16POPC   C4A  148  -0.402   3.746   6.035 -0.3732  0.0597  0.0760
   16POPC   C1B  149   0.674   3.089   7.117  0.0063  0.3099 -0.0666
   16POPC   C2B  150   0.959   2.918   6.804 -0.1767  0.1163  0.1426
   16POPC   C3B  151   1.032   2.918   6.343  0.1116 -0.0704  0.1373
   16POPC   C4B  152   1.141   2.967   5.862  0.0439  0.2049 -0.2865
   17POPC   NC3  153   3.641   2.459   8.134  0.0187 -0.1056  0.3377
   17POPC   PO4  154   3.349   2.642   7.943 -0.0483  0.0216  0.1206
   17POPC   GL1  155   3.312   2.722   7.553 -0.0036  0.0861 -0.1262
   17POPC   GL2  156   3.280   2.492   7.431  0.0672  0.3365 -0.1211
   17POPC   C1A  157   3.347   3.024   7.259  0.0613 -0.0777  0.1318
   17POPC   D2A  158   3.079   3.337   6.927  0.1965  0.3415  0.0020
   17POPC   C3A  159   2.947   3.548   6.551  0.1882  0.2351 -0.0279
   17POPC   C4A  160   2.881   3.567   6.094 -0.0082  0.0312  0.0573
   17POPC   C1B  161   3.114   2.637   7.145 -0.0525  0.3918 -0.0572
   17POPC   C2B  162   2.848   2.861   6.940 -0.0422 -0.0732 -0.3161
   17POPC   C3B  163   2.514   2.869   6.563  0.2314 -0.0161  0.2434
   17POPC   C4B  164   2.254   2.763   6.118  0.1291  0.0765  0.0128
   18POPC   NC3  165   3.039   1.254   7.756  0.0672 -0.1108  0.2396
   18POPC   PO4  166   3.288   1.571   7.660  0.0988  0.1665 -0.0365
   18POPC   GL1  167   3.397   1.410   7.279 -0.4842  0.2114 -0.0859
   18POPC   GL2  168   3.616   1.641   7.263  0.1955 -0.1532 -0.0489
   18POPC   C1A  169   3.296   1.457   6.832 -0.1820 -0.0087 -0.2957
   18POPC   D2A  170   2.974   1.391   6.546  0.1374  0.4338 -0.0044
   18POPC   C3A  171   3.041   1.030   6.770 -0.1706 -0.0227  0.1240
   18POPC   C4A  172   2.781   0.616   6.649  0.1134  0.3246 -0.0226
   18POPC   C1B  173   3.759   1.732   6.941  0.2869 -0.1330 -0.0439
   18POPC   C2B  174   3.638   2.058   6.726 -0.2093 -0.0082 -0.0778
   18POPC   C3B  175   3.487   2.432   6.478 -0.0850  0.1773 -0.1565
   18POPC   C4B  176   3.188   2.437   6.097 -0.1786 -0.0524  0.0695
   19POPC   NC3  177   3.680   1.818   7.685 -0.0367  0.0703  0.2855
   19POPC   PO4  178   3.885   2.019   7.914 -0.2140 -0.0378 -0.1021
   19POPC   GL1  179   3.911   2.372   7.715 -0.0449 -0.0364  0.3563
   19POPC   GL2  180   3.678   2.415   7.685  0.4613 -0.2635  0.1970
   19POPC   C1A  181   4.139   2.369   7.287  0.0018  0.0010 -0.0207
   19POPC   D2A  182   4.505   2.189   6.996 -0.0553 -0.0540 -0.1890
   19POPC   C3A  183   4.570   2.412   6.579 -0.0680  0.0107 -0.2867
   19POPC   C4A  184   4.561   2.795   6.243 -0.1416 -0.0680 -0.1340
   19POPC   C1B  185   3.645   2.573   7.345 -0.5080 -0.0337  0.1564
   19POPC   C2B  186   3.510   2.579   6.973  0.0992 -0.0254 -0.2936
   19POPC   C3B  187   3.247   2.854   6.651  0.0300  0.1857  0.1853
   19POPC   C4B  188   2.987   3.070   6.325  0.0999  0.1843  0.0018
   20POPC   NC3  189   1.692   1.552   8.317  0.0975 -0.0878 -0.1590
   20POPC   PO4  190   1.674   1.503   7.947 -0.2721 -0.0574 -0.1422
   20POPC   GL1  191   1.630   1.676   7.662  0.2010  0.2926 -0.0036
   20POPC   GL2  192   1.800   1.865   7.563  0.0786  0.2506  0.1159
   20POPC   C1A  193   1.546   1.806   7.234  0.0703  0.1871 -0.1787
   20POPC   D2A  194   1.708   1.804   6.798 -0.1851 -0.0381  0.2876
   20POPC   C3A  195   1.965   1.582   6.508 -0.0041  0.1702 -0.0369
   20POPC   C4A  196   2.136   1.160   6.576  0.0970 -0.2555  0.2967
   20POPC   C1B  197   1.970   1.657   7.252 -0.0211 -0.2447 -0.1985
   20POPC   C2B  198   2.044   1.318   7.039  0.0854  0.0939 -0.0430
   20POPC   C3B  199   1.790   0.888   6.953  0.0614 -0.1595  0.0372
   20POPC   C4B  200   1.378   0.824   6.717  0.1696  0.1760 -0.1632
   21POPC   NC3  201   0.534   2.424   7.884  0.4562 -0.1509  0.0257
   21POPC   PO4  202   0.736   2.260   7.617  0.0177  0.0230 -0.2339
   21POPC   GL1  203   0.399   2.188   7.337  0.5225  0.1590 -0.3308
   21POPC   GL2  204   0.563   1.918   7.367  0.0105  0.2294  0.1141
   21POPC   C1A  205   0.595   2.337   6.906  0.0821  0.0868  0.1076
   21POPC   D2A  206   0.950   2.398   6.582  0.5395  0.2955 -0.0582
   21POPC   C3A  207   0.962   2.378   6.117  0.1378 -0.0874  0.1210
   21POPC   C4A  208   0.780   2.386   5.656 -0.4453  0.0404  0.0842
   21POPC   C1B  209   0.736   1.933   7.075  0.1658 -0.0816  0.1465
   21POPC   C2B  210   0.766   1.909   6.625 -0.1908 -0.2197 -0.1112
   21POPC   C3B  211   0.677   1.938   6.182 -0.0257  0.2961  0.1913
   21POPC   C4B  212   1.053   1.961   5.884 -0.2470  0.0943 -0.2561
   22POPC   NC3  213   0.740   1.643   7.712  0.1596  0.0034  0.0451
   22POPC   PO4  214   0.648   1.316   7.523 -0.1539  0.1390  0.2710
   22POPC   GL1  215   0.882   1.477   7.158  0.1234 -0.1644 -0.2518
   22POPC   GL2  216   0.968   1.143   7.198  0.0717 -0.2753 -0.6176
   22POPC   C1A  217   0.610   1.402   6.772 -0.1630 -0.2631 -0.0129
   22POPC   D2A  218   0.216   1.474   6.529  0.1095 -0.0733  0.1733
   22POPC   C3A  219   0.260   1.654   6.119 -0.2515  0.0467 -0.0120
   22POPC   C4A  220   0.349   1.904   5.706 -0.1373  0.2619  0.0581
   22POPC   C1B  221   1.050   1.173   6.851  0.0253  0.0075  0.0186
   22POPC   C2B  222   1.212   1.250   6.520 -0.0696 -0.0076  0.1214
   22POPC   C3B  223   1.509   1.571   6.343  0.0935 -0.2003  0.3943
   22POPC   C4B  224   1.688   2.047   6.345  0.0433 -0.2780  0.1383
   23POPC   NC3  225   3.980   2.818   7.613 -0.0254  0.1083  0.0880
   23POPC   PO4  226   4.153   3.150   7.708  0.2597  0.0091  0.1662
   23POPC   GL1  227   3.915   3.317   7.356  0.0735  0.3998 -0.1426
   23POPC   GL2  228   3.762   3.103   7.332 -0.3645 -0.0440 -0.2275
   23POPC   C1A  229   4.083   3.437   7.005 -0.3410  0.0046 -0.1184
   23POPC   D2A  230   4.206   3.410   6.488 -0.0184 -0.2244 -0.2593
   23POPC   C3A  231   4.632   3.278   6.443  0.1143 -0.1324 -0.1993
   23POPC   C4A  232   5.001   2.978   6.462 -0.0570 -0.3038 -0.2630
   23POPC   C1B  233   3.821   2.931   6.986  0.0129 -0.2461 -0.0638
   23POPC   C2B  234   3.763   3.050   6.616  0.0702 -0.1052 -0.0319
   23POPC   C3B  235   3.856   3.279   6.138 -0.0949  0.3248 -0.2180
   23POPC   C4B  236   3.884   3.483   5.643 -0.1421  0.1696 -0.1747
   24POPC   NC3  237   2.965   1.568   7.255 -0.0121  0.1226  0.1337
   24POPC   PO4  238   2.704   1.370   7.454  0.0365 -0.0715 -0.0543
   24POPC   GL1  239   2.443   1.126   7.322 -0.0715  0.2749  0.2022
   24POPC   GL2  240   2.607   0.836   7.364  0.3133 -0.3835  0.1456
   24POPC   C1A  241   2.507   1.156   6.915  0.1462 -0.0256  0.1554
   24POPC   D2A  242   2.584   1.049   6.428 -0.4587  0.1627  0.1326
   24POPC   C3A  243   2.958   1.083   6.156  0.0566 -0.0839  0.2414
   24POPC   C4A  244   3.174   1.548   5.990  0.1712 -0.0682 -0.2512
   24POPC   C1B  245   2.561   0.691   7.045 -0.0393  0.1018  0.1873
   24POPC   C2B  246   2.311   0.629   6.710  0.1487  0.0457  0.2248
   24POPC   C3B  247   1.973   0.687   6.432 -0.0744  0.0493 -0.1756
   24POPC   C4B  248   1.638   1.022   6.265 -0.0345  0.1825 -0.1485
   25POPC   NC3  249   4.347   0.656   7.519 -0.0816  0.1252 -0.0374
   25POPC   PO4  250   4.733   0.680   7.446  0.1199  0.2791 -0.0712
   25POPC   GL1  251   4.891   0.534   7.061 -0.0259  0.3027  0.0790
   25POPC   GL2  252   4.594   0.598   7.019  0.1094 -0.1076  0.0561
   25POPC   C1A  253   4.875   0.475   6.638  0.1223 -0.1617  0.0119
   25POPC   D2A  254   5.124   0.652   6.165  0.2089 -0.0699  0.0915
   25POPC   C3A  255   5.280   1.052   6.003  0.0752  0.0502  0.0605
   25POPC   C4A  256   5.637   1.245   6.035 -0.0045 -0.2855 -0.1383
   25POPC   C1B  257   4.395   0.636   6.655  0.0119  0.1015 -0.5611
   25POPC   C2B  258   4.494   0.598   6.274  0.2542 -0.1241 -0.0026
   25POPC   C3B  259   4.441   0.811   5.843  0.0213 -0.0900 -0.2793
   25POPC   C4B  260   4.109   0.769   5.517 -0.0344  0.3502 -0.3042
   26POPC   NC3  261   2.368   2.708   7.943 -0.1593  0.0167  0.2305
   26POPC   PO4  262   2.567   2.947   7.721 -0.0572  0.2194 -0.0276
   26POPC   GL1  263   2.456   3.022   7.389  0.1410  0.2238 -0.2146
   26POPC   GL2  264   2.583   3.285   7.390 -0.4712 -0.1941 -0.3543
   26POPC   C1A  265   2.290   3.004   6.965  0.0726  0.0230  0.2552
   26POPC   D2A  266   2.091   3.312   6.541  0.2623  0.2784 -0.1341
   26POPC   C3A  267   1.916   3.183   6.142 -0.3372  0.4162  0.1262
   26POPC   C4A  268   1.670   3.182   5.699 -0.0127  0.3749 -0.1097
   26POPC   C1B  269   2.627   3.256   7.062 -0.1041 -0.3001  0.0064
   26POPC   C2B  270   2.546   3.348   6.716  0.0248  0.0666 -0.3058
   26POPC   C3B  271   2.494   3.287   6.268 -0.2573 -0.0217 -0.1001
   26POPC   C4B  272   2.529   3.421   5.767 -0.1057 -0.1219 -0.1751
   27POPC   NC3  273   3.880   0.969   7.889  0.0867  0.1577 -0.1506
   27POPC   PO4  274   3.771   0.637   7.741  0.2330 -0.0845  0.0593
   27POPC   GL1  275   3.857   0.604   7.352  0.2142  0.2449  0.1178
   27POPC   GL2  276   3.699   0.525   7.178  0.1125  0.2751 -0.0912
   27POPC   C1A  277   4.144   0.393   7.069  0.0479 -0.2630  0.3008
   27POPC   D2A  278   4.441   0.215   6.817 -0.0592  0.0364  0.0609
   27POPC   C3A  279   4.543   0.056   6.400  0.1720  0.3643  0.1649
   27POPC   C4A  280   4.411  -0.189   6.039  0.2498  0.0444 -0.0091
   27POPC   C1B  281   3.689   0.514   6.820  0.0959 -0.0914  0.1697
   27POPC   C2B  282   3.526   0.299   6.505 -0.0156  0.2290 -0.2352
   27POPC   C3B  283   3.313  -0.009   6.190  0.2375  0.0025  0.0708
   27POPC   C4B  284   2.912  -0.141   5.863 -0.1460 -0.0677 -0.0550
   28POPC   NC3  285   2.172   3.271   7.654  0.2454  0.0059  0.0472
   28POPC   PO4  286   1.888   3.584   7.662  0.1423  0.0499  0.1895
   28POPC   GL1  287   1.766   3.736   7.268  0.0017 -0.0468 -0.1989
   28POPC   GL2  288   1.889   3.467   7.181 -0.0477 -0.2486  0.0257
   28POPC   C1A  289   2.006   4.043   7.121 -0.3537 -0.1250 -0.0700
   28POPC   D2A  290   2.243   4.103   6.677  0.3060 -0.1461  0.2071
   28POPC   C3A  291   2.259   4.206   6.198  0.0663 -0.0755 -0.1548
   28POPC   C4A  292   2.439   4.477   5.809 -0.1776  0.2446  0.0974
   28POPC   C1B  293   1.764   3.455   6.834  0.3315 -0.0776  0.0576
   28POPC   C2B  294   1.727   3.697   6.441  0.2689 -0.1914 -0.1208
   28POPC   C3B  295   1.651   3.658   5.925  0.2832  0.4417 -0.0164
   28POPC   C4B  296   1.572   3.635   5.454  0.1766 -0.0885 -0.1057
   29POPC   NC3  297   2.009   0.907   7.417 -0.1646  0.0770 -0.0492
   29POPC   PO4  298   2.147   0.558   7.579 -0.1476 -0.2591  0.0716
   29POPC   GL1  299   2.153   0.282   7.204 -0.0641 -0.1548  0.1823
   29POPC   GL2  300   2.110   0.493   7.094  0.1218  0.0363 -0.0907
   29POPC   C1A  301   1.915   0.007   7.075  0.0672 -0.0900  0.3097
   29POPC   D2A  302   1.461  -0.040   7.073 -0.0839 -0.2148  0.1248
   29POPC   C3A  303   1.095  -0.117   6.790  0.1261  0.1875 -0.1116
   29POPC   C4A  304   0.883  -0.241   6.360 -0.1617 -0.2834  0.2439
   29POPC   C1B  305   1.887   0.460   6.829  0.4245  0.4109  0.3257
   29POPC   C2B  306   1.969   0.130   6.553 -0.1415  0.0462  0.1030
   29POPC   C3B  307   2.408   0.176   6.354 -0.2007 -0.1648  0.1445
   29POPC   C4B  308   2.845   0.317   6.133  0.3293 -0.1269 -0.2277
   30POPC   NC3  309   2.096   1.976   7.863 -0.2669 -0.2307  0.1465
   30POPC   PO4  310   2.351   1.786   7.625 -0.2649  0.2290 -0.1989
   30POPC   GL1  311   2.491   1.810   7.263 -0.0273  0.1622 -0.2131
   30POPC   GL2  312   2.437   1.546   7.146  0.2380 -0.1719 -0.2173
   30POPC   C1A  313   2.834   1.944   6.928  0.0428  0.0532  0.3219
   30POPC   D2A  314   3.189   1.865   6.583 -0.2718  0.4232  0.1766
   30POPC   C3A  315   3.426   1.976   6.240 -0.0271  0.1022 -0.0800
   30POPC   C4A  316   3.209   2.025   5.810 -0.2917  0.3599  0.4868
   30POPC   C1B  317   2.371   1.546   6.796  0.1190 -0.2390  0.2115
   30POPC   C2B  318   2.412   1.516   6.354 -0.0497 -0.0210 -0.1893
   30POPC   C3B  319   1.997   1.662   6.052 -0.1125 -0.2018 -0.0572
   30POPC   C4B  320   1.582   1.832   5.792  0.0284  0.3397  0.2173
   31POPC   NC3  321   4.113   0.265   7.702  0.1784 -0.2454  0.2528
   31POPC   PO4  322   4.457   0.144   7.834 -0.1783  0.0678  0.4196
   31POPC   GL1  323   4.416  -0.208   7.575 -0.0078  0.1413  0.1763
   31POPC   GL2  324   4.708  -0.152   7.465  0.2430  0.1035 -0.0810
   31POPC   C1A  325   4.089  -0.097   7.263 -0.1230 -0.1040 -0.0630
   31POPC   D2A  326   3.885   0.035   6.864  0.0673 -0.0691 -0.0987
   31POPC   C3A  327   4.025   0.344   6.563 -0.0275 -0.2015 -0.3379
   31POPC   C4A  328   4.036   0.647   6.108 -0.0953  0.0215 -0.0211
   31POPC   C1B  329   4.664  -0.204   7.101 -0.0582 -0.2916  0.0530
   31POPC   C2B  330   4.340  -0.264   6.808 -0.0155  0.0802  0.2182
   31POPC   C3B  331   4.057  -0.192   6.404 -0.0493 -0.1552 -0.0694
   31POPC   C4B  332   3.657  -0.376   6.110  0.1241  0.0661  0.0025
   32POPC   NC3  333   4.370   1.667   8.104 -0.0158  0.0989 -0.1675
   32POPC   PO4  334   4.018   1.510   7.993  0.2494 -0.3001  0.1949
   32POPC   GL1  335   4.108   1.561   7.619  0.0696 -0.4501  0.0980
   32POPC   GL2  336   4.460   1.571   7.687  0.0392  0.0651 -0.2697
   32POPC   C1A  337   4.127   1.656   7.183 -0.1875  0.2168 -0.0327
   32POPC   D2A  338   4.176   1.877   6.828  0.2737 -0.1711  0.4062
   32POPC   C3A  339   4.298   2.013   6.368 -0.2349 -0.2277  0.0267
   32POPC   C4A  340   4.220   1.784   5.861 -0.1879  0.3831 -0.1994
   32POPC   C1B  341   4.553   1.743   7.382  0.0758 -0.2747 -0.1870
   32POPC   C2B  342   4.699   1.712   7.007 -0.0583 -0.2259 -0.1897
   32POPC   C3B  343   4.738   1.930   6.540  0.1213 -0.1600  0.4293
   32POPC   C4B  344   4.662   2.195   6.142  0.2488 -0.1714 -0.1038
   33POPC   NC3  345   0.198   3.393   7.732 -0.3110  0.0169  0.1350
   33POPC   PO4  346  -0.130   3.559   7.894  0.0069 -0.1084 -0.2571
   33POPC   GL1  347  -0.214   3.598   7.512 -0.4842  0.1727  0.1700
   33POPC   GL2  348  -0.072   3.358   7.396  0.0984  0.2547  0.1364
   33POPC   C1A  349  -0.243   3.890   7.165 -0.2652 -0.0754  0.1718
   33POPC   D2A  350  -0.602   3.853   6.808  0.1379  0.4941 -0.0492
   33POPC   C3A  351  -0.732   3.652   6.417 -0.2839 -0.5103 -0.0161
   33POPC   C4A  352  -1.084   3.463   6.067 -0.1037  0.3129 -0.2151
   33POPC   C1B  353   0.219   3.391   7.164 -0.3014 -0.0065  0.0779
   33POPC   C2B  354   0.502   3.458   6.831 -0.1333  0.0197  0.0052
   33POPC   C3B  355   0.801   3.388   6.400  0.1579 -0.1364 -0.2991
   33POPC   C4B  356   1.234   3.488   6.083  0.2632  0.1050  0.2375
   34POPC   NC3  357   1.527   2.721   7.950 -0.3020 -0.0781  0.3879
   34POPC   PO4  358   1.570   2.395   7.728  0.2128  0.1244  0.0393
   34POPC   GL1  359   1.784   2.299   7.440  0.2462  0.0196  0.2515
   34POPC   GL2  360   1.700   2.475   7.249 -0.0812 -0.0046 -0.1257
   34POPC   C1A  361   1.932   2.094   7.093  0.2129  0.2428  0.2665
   34POPC   D2A  362   2.174   1.962   6.774  0.0628 -0.0268 -0.2837
   34POPC   C3A  363   2.530   1.955   6.497 -0.1086  0.0006  0.1575
   34POPC   C4A  364   2.848   1.897   6.179 -0.0853 -0.1479  0.1031
   34POPC   C1B  365   1.672   2.537   6.865 -0.0755  0.6977 -0.0400
   34POPC   C2B  366   1.514   2.509   6.454  0.0198  0.1664  0.2797
   34POPC   C3B  367   1.715   2.613   6.062  0.0730  0.1602 -0.0211
   34POPC   C4B  368   1.964   2.756   5.728  0.1742 -0.0161 -0.2587
   35POPC   NC3  369   1.768   0.222   7.672  0.0919  0.1510 -0.0755
   35POPC   PO4  370   1.625   0.541   7.825  0.0402 -0.0337 -0.0868
   35POPC   GL1  371   1.561   0.769   7.455 -0.2231  0.1061 -0.5468
   35POPC   GL2  372   1.723   0.548   7.309 -0.2843 -0.2489 -0.0503
   35POPC   C1A  373   1.271   0.816   7.206  0.5126  0.0713  0.5242
   35POPC   D2A  374   0.904   0.720   6.863  0.2119 -0.1148 -0.4113
   35POPC   C3A  375   0.751   1.043   6.477  0.0427 -0.1007  0.0631
   35POPC   C4A  376   0.739   1.485   6.264 -0.1210  0.0417  0.1290
   35POPC   C1B  377   1.513   0.468   7.048  0.1914 -0.4387 -0.2752
   35POPC   C2B  378   1.388   0.293   6.661  0.2405  0.0071 -0.1457
   35POPC   C3B  379   1.273   0.029   6.286 -0.0046  0.0604  0.1444
   35POPC   C4B  380   1.257  -0.324   6.023  0.1049 -0.0353  0.2637
   36CER6   NOH  381   0.195   3.201   3.806 -0.4474 -0.2361  0.2183
   36CER6    OH  382   0.355   3.017   3.543  0.1284  0.1867  0.1299
   36CER6   GLA  383   0.013   3.108   4.015  0.0900 -0.0310 -0.0084
   36CER6   GLB  384   0.471   3.183   3.762 -0.2675  0.1466 -0.1264
   36CER6   C1A  385   0.185   3.162   4.600  0.3497 -0.4448  0.2026
   36CER6   C2A  386   0.412   3.061   5.071 -0.2056 -0.1431  0.1309
   36CER6   C1B  387   0.465   3.005   4.188  0.3584 -0.1767 -0.1951
   36CER6   C2B  388   0.639   2.875   4.677  0.1133  0.2582 -0.0228
   37CER6   NOH  389   2.189   1.328   4.092 -0.0733  0.4313 -0.0908
   37CER6    OH  390   2.117   1.139   3.776  0.5029 -0.0626  0.2345
   37CER6   GLA  391   2.383   1.567   4.078  0.3436  0.2440 -0.1553
   37CER6   GLB  392   1.913   1.227   4.004 -0.0312  0.1199 -0.1926
   37CER6   C1A  393   2.476   1.625   4.647 -0.1979  0.0334  0.1924
   37CER6   C2A  394   2.531   1.841   5.139  0.1915  0.1448  0.0609
   37CER6   C1B  395   1.842   1.301   4.439 -0.0341 -0.0387  0.1429
   37CER6   C2B  396   1.670   1.275   4.904  0.1373 -0.1756 -0.5707
   38CER6   NOH  397   3.655   2.118   3.787 -0.3552 -0.1685  0.1501
   38CER6    OH  398   3.468   2.429   3.683  0.0136  0.1793  0.2501
   38CER6   GLA  399   3.610   1.994   4.007  0.0213  0.2088 -0.0322
   38CER6   GLB  400   3.759   2.407   3.725 -0.3008 -0.0359  0.0298
   38CER6   C1A  401   4.117   2.101   4.334 -0.2790  0.0223  0.1069
   38CER6   C2A  402   4.311   1.854   4.769  0.0288  0.0038  0.1220
   38CER6   C1B  403   3.862   2.563   4.118  0.3782  0.1770  0.1849
   38CER6   C2B  404   4.195   2.956   4.424 -0.1837  0.2793  0.2334
   39CER6   NOH  405   2.229   3.635   4.712  0.0450  0.2584 -0.1806
   39CER6    OH  406   2.373   3.329   4.542 -0.2181  0.1682 -0.5956
   39CER6   GLA  407   2.391   3.872   4.617 -0.0727  0.4409  0.2193
   39CER6   GLB  408   2.227   3.343   4.820  0.1025 -0.0739  0.1287
   39CER6   C1A  409   2.890   3.999   4.960 -0.0386  0.1116  0.1402
   39CER6   C2A  410   3.150   4.202   5.366 -0.1964  0.3438 -0.4294
   39CER6   C1B  411   2.488   3.426   5.210 -0.2813  0.0935 -0.0664
   39CER6   C2B  412   2.829   3.777   5.448  0.2146  0.2319  0.1349
   40CER6   NOH  413   0.401   2.254   3.824 -0.1804  0.1443 -0.1235
   40CER6    OH  414   0.687   2.141   3.625  0.2659  0.0357 -0.1495
   40CER6   GLA  415   0.492   2.486   3.971 -0.0991 -0.2787 -0.1841
   40CER6   GLB  416   0.545   2.011   3.890 -0.1741 -0.0986  0.4086
   40CER6   C1A  417   0.378   2.410   4.532  0.0326  0.1186 -0.3158
   40CER6   C2A  418   0.173   2.678   4.896 -0.0503  0.1684 -0.1391
   40CER6   C1B  419   0.615   2.015   4.336 -0.2209  0.2866 -0.1584
   40CER6   C2B  420   1.057   1.950   4.663 -0.0901 -0.0552 -0.0530
   41CER6   NOH  421   1.988   0.005   4.284 -0.1102  0.1262  0.4586
   41CER6    OH  422   1.665   0.071   4.203 -0.1526  0.2104 -0.1460
   41CER6   GLA  423   2.314  -0.089   4.251  0.1798 -0.0338 -0.0063
   41CER6   GLB  424   1.755  -0.117   4.412 -0.1486 -0.0753 -0.2703
   41CER6   C1A  425   2.500  -0.177   4.815 -0.1390  0.0594  0.2872
   41CER6   C2A  426   2.404  -0.483   5.269  0.2295  0.2081 -0.0555
   41CER6   C1B  427   1.605  -0.131   4.802  0.3048 -0.1684 -0.1416
   41CER6   C2B  428   1.353  -0.347   5.188  0.0231  0.1962 -0.0519
   42CER6   NOH  429   1.145   3.932   4.702 -0.2194 -0.1451 -0.1191
   42CER6    OH  430   1.264   4.226   4.525  0.2271 -0.5417 -0.3607
   42CER6   GLA  431   1.315   3.775   4.916  0.0949  0.3022 -0.1027
   42CER6   GLB  432   1.026   4.199   4.682  0.3672  0.1953  0.1733
   42CER6   C1A  433   0.876   3.856   5.242 -0.1558 -0.1256 -0.0782
   42CER6   C2A  434   0.553   3.855   5.655  0.0711  0.1225 -0.3886
   42CER6   C1B  435   0.657   3.905   4.772 -0.0333  0.0149 -0.1517
   42CER6   C2B  436   0.315   3.913   5.219 -0.0710  0.0869 -0.0895
   43CER6   NOH  437   1.515   3.676   4.485 -0.0309  0.0930 -0.1666
   43CER6    OH  438   1.804   3.483   4.380 -0.4627 -0.2777 -0.0647
   43CER6   GLA  439   1.567   3.971   4.580 -0.3744 -0.0718  0.1212
   43CER6   GLB  440   1.661   3.461   4.636  0.2810 -0.1756  0.2011
   43CER6   C1A  441   1.868   3.670   5.018  0.1684  0.2125  0.2829
   43CER6   C2A  442   2.082   3.645   5.493  0.2729  0.1146 -0.0295
   43CER6   C1B  443   1.818   3.169   4.996  0.0611  0.0495  0.1996
   43CER6   C2B  444   2.075   3.128   5.443  0.1187 -0.1119  0.1065
   44CER6   NOH  445   3.523   1.577   4.225 -0.2380  0.2975  0.0852
   44CER6    OH  446   3.582   1.372   3.979 -0.1910  0.1782  0.4432
   44CER6   GLA  447   3.281   1.711   4.385  0.0232  0.0946  0.3327
   44CER6   GLB  448   3.787   1.475   4.123 -0.1172 -0.1210 -0.0519
   44CER6   C1A  449   2.959   1.378   4.731 -0.3291  0.2287  0.1599
   44CER6   C2A  450   2.601   1.218   5.045 -0.2025  0.0698  0.0968
   44CER6   C1B  451   3.904   1.716   4.520 -0.0416 -0.2403 -0.0512
   44CER6   C2B  452   3.502   1.909   4.848  0.2120 -0.1760  0.2103
   45CER6   NOH  453   2.852   0.034   3.785  0.2434  0.2964 -0.0459
   45CER6    OH  454   3.123   0.299   3.813  0.0879 -0.5288 -0.5033
   45CER6   GLA  455   2.681  -0.158   3.791  0.2866  0.3377  0.0079
   45CER6   GLB  456   2.925   0.227   4.004 -0.1457  0.1081 -0.0530
   45CER6   C1A  457   2.834  -0.268   4.367  0.0966  0.0201 -0.1470
   45CER6   C2A  458   3.098  -0.031   4.837 -0.0730 -0.0204 -0.1069
   45CER6   C1B  459   2.737   0.249   4.421 -0.0120 -0.3928  0.0126
   45CER6   C2B  460   2.478   0.307   4.925 -0.1020  0.1786  0.1172
   46POPC   NC3  461   4.147   1.329   3.686 -0.4506  0.1976  0.2369
   46POPC   PO4  462   3.932   1.050   3.889  0.3040 -0.6233 -0.2856
   46POPC   GL1  463   3.904   1.050   4.260 -0.3933  0.3242 -0.2141
   46POPC   GL2  464   3.769   0.844   4.359 -0.2579 -0.0847 -0.2247
   46POPC   C1A  465   3.962   1.212   4.657  0.1884 -0.3007 -0.0734
   46POPC   D2A  466   4.078   1.183   5.174  0.0811  0.2536  0.0238
   46POPC   C3A  467   3.920   1.237   5.608 -0.2147 -0.0303 -0.1450
   46POPC   C4A  468   3.877   1.270   6.094  0.0240 -0.0048 -0.1023
   46POPC   C1B  469   3.483   0.930   4.545  0.1077  0.0650 -0.0778
   46POPC   C2B  470   3.133   0.949   4.878 -0.1387 -0.1508 -0.2837
   46POPC   C3B  471   2.874   0.871   5.318  0.0311  0.0571 -0.0129
   46POPC   C4B  472   3.095   0.776   5.798  0.1632  0.0032  0.1011
   47POPC   NC3  473   1.394   2.418   3.930 -0.1150 -0.0421 -0.1526
   47POPC   PO4  474   1.266   2.782   4.031  0.0439  0.1544  0.0542
   47POPC   GL1  475   1.251   2.819   4.429  0.0721  0.0508 -0.1147
   47POPC   GL2  476   1.002   2.669   4.493 -0.2595 -0.1050 -0.0014
   47POPC   C1A  477   1.424   2.775   4.832  0.2005 -0.1221 -0.0651
   47POPC   D2A  478   1.478   2.900   5.310 -0.0090 -0.2078  0.3115
   47POPC   C3A  479   1.082   2.651   5.336 -0.1343  0.1623  0.2395
   47POPC   C4A  480   0.606   2.657   5.169 -0.4362 -0.2427 -0.3544
   47POPC   C1B  481   1.026   2.418   4.794  0.2019  0.0257  0.1346
   47POPC   C2B  482   0.927   2.218   5.149  0.0545  0.1537  0.1250
   47POPC   C3B  483   0.765   1.774   5.332  0.0796 -0.0497  0.3725
   47POPC   C4B  484   0.846   1.415   5.119  0.0399  0.0596  0.1099
   48POPC   NC3  485   2.813   1.518   4.238 -0.3138 -0.2781 -0.1395
   48POPC   PO4  486   3.132   1.390   4.020  0.2819 -0.1110  0.2143
   48POPC   GL1  487   3.252   1.258   4.352 -0.0737  0.0974 -0.1606
   48POPC   GL2  488   2.969   1.102   4.316 -0.0558 -0.2424 -0.1022
   48POPC   C1A  489   3.480   1.383   4.667  0.0328 -0.2154 -0.3439
   48POPC   D2A  490   3.687   1.530   5.112  0.1610  0.0646  0.1468
   48POPC   C3A  491   4.073   1.754   5.252  0.1793  0.1257 -0.2689
   48POPC   C4A  492   4.464   2.061   5.270 -0.0225 -0.0084 -0.2202
   48POPC   C1B  493   2.944   0.754   4.459 -0.0246 -0.0702  0.0259
   48POPC   C2B  494   3.112   0.492   4.701  0.2155 -0.5206  0.0300
   48POPC   C3B  495   2.906   0.325   5.134 -0.2035 -0.0293  0.0658
   48POPC   C4B  496   2.703  -0.047   5.327  0.0428 -0.1087 -0.0610
   49POPC   NC3  497   2.030   1.774   3.884  0.0732  0.3086  0.0882
   49POPC   PO4  498   2.252   2.071   3.997 -0.0187 -0.2079  0.0065
   49POPC   GL1  499   2.221   1.901   4.352  0.1578  0.1492 -0.2226
   49POPC   GL2  500   1.984   1.744   4.326  0.1222  0.1204 -0.1848
   49POPC   C1A  501   2.172   2.033   4.720 -0.2319  0.1339  0.2416
   49POPC   D2A  502   2.174   2.223   5.129  0.0058 -0.0938  0.3927
   49POPC   C3A  503   2.192   2.000   5.519  0.0030  0.0464  0.1344
   49POPC   C4A  504   2.437   1.723   5.858 -0.1788 -0.0521 -0.3564
   49POPC   C1B  505   1.988   1.573   4.695 -0.0557 -0.1586 -0.0362
   49POPC   C2B  506   2.168   1.470   5.052 -0.0303 -0.0458 -0.3374
   49POPC   C3B  507   2.200   1.331   5.575 -0.0155  0.1118 -0.4108
   49POPC   C4B  508   2.584   1.234   5.850 -0.2800 -0.1602 -0.1293
   50POPC   NC3  509   2.416   2.540   4.257 -0.0337  0.2517 -0.0093
   50POPC   PO4  510   2.008   2.436   4.240  0.0831  0.2095 -0.0121
   50POPC   GL1  511   1.706   2.511   4.581  0.2145  0.0094  0.0695
   50POPC   GL2  512   1.534   2.528   4.402  0.1601 -0.0233  0.3384
   50POPC   C1A  513   1.942   2.676   5.010  0.2691 -0.0866  0.0661
   50POPC   D2A  514   2.323   2.669   5.339  0.0465  0.0263  0.3860
   50POPC   C3A  515   2.368   2.510   5.739 -0.1598  0.0744  0.0970
   50POPC   C4A  516   2.360   2.189   6.119  0.2596 -0.1919  0.0185
   50POPC   C1B  517   1.377   2.238   4.569  0.1310  0.2185 -0.1568
   50POPC   C2B  518   1.460   2.318   4.999  0.1194  0.0895  0.2876
   50POPC   C3B  519   1.748   2.332   5.331 -0.1116  0.0740 -0.1700
   50POPC   C4B  520   1.901   2.281   5.779  0.2111  0.2709 -0.0847
   51POPC   NC3  521   3.974   0.688   3.542  0.3226 -0.1091 -0.1087
   51POPC   PO4  522   4.157   0.392   3.729 -0.3863  0.4261 -0.0543
   51POPC   GL1  523   4.288   0.359   4.158 -0.3749  0.0563  0.3974
   51POPC   GL2  524   4.208   0.711   4.203  0.3644  0.1846  0.1947
   51POPC   C1A  525   4.231   0.052   4.388 -0.1102 -0.0841  0.1118
   51POPC   D2A  526   4.261  -0.000   4.834  0.1860  0.3136 -0.0373
   51POPC   C3A  527   4.239  -0.368   5.140  0.1462  0.2523 -0.4058
   51POPC   C4A  528   4.399  -0.554   5.517 -0.0795 -0.3087  0.0978
   51POPC   C1B  529   4.152   0.769   4.520  0.2176  0.0804  0.2042
   51POPC   C2B  530   4.373   0.886   4.862  0.1507  0.0742 -0.1406
   51POPC   C3B  531   4.508   0.990   5.344 -0.0535 -0.0590 -0.1485
   51POPC   C4B  532   4.394   1.352   5.703 -0.0471 -0.0335 -0.0365
   52POPC   NC3  533   3.803   0.565   3.999  0.1141  0.0966  0.0636
   52POPC   PO4  534   3.485   0.458   4.155 -0.0177  0.0929 -0.3420
   52POPC   GL1  535   3.632   0.433   4.511  0.4236  0.2200  0.1784
   52POPC   GL2  536   3.932   0.415   4.425  0.4828 -0.2926  0.1397
   52POPC   C1A  537   3.800   0.693   4.805  0.1036  0.3789  0.4109
   52POPC   D2A  538   3.577   1.051   5.072 -0.1976  0.5344 -0.1185
   52POPC   C3A  539   3.288   1.242   5.279  0.1030 -0.0610 -0.1162
   52POPC   C4A  540   2.897   1.546   5.525  0.2036 -0.3171  0.1246
   52POPC   C1B  541   4.180   0.394   4.701 -0.3338  0.1709  0.3092
   52POPC   C2B  542   4.311   0.369   5.096  0.0504  0.0542  0.5836
   52POPC   C3B  543   4.689   0.441   5.389  0.0570 -0.1398  0.0873
   52POPC   C4B  544   4.939   0.712   5.657 -0.0436  0.0541  0.2175
   53POPC   NC3  545   0.937   3.086   4.203 -0.1339 -0.1271 -0.0427
   53POPC   PO4  546   1.311   3.233   4.260 -0.0882  0.0557  0.1872
   53POPC   GL1  547   1.263   3.216   4.680 -0.1599 -0.1173 -0.3631
   53POPC   GL2  548   0.986   3.122   4.681  0.1800 -0.0541 -0.1146
   53POPC   C1A  549   1.381   3.326   5.100  0.1116  0.0595  0.0399
   53POPC   D2A  550   1.089   3.315   5.477 -0.1364 -0.2829 -0.1256
   53POPC   C3A  551   1.155   3.779   5.663 -0.2690 -0.2064 -0.3129
   53POPC   C4A  552   0.891   4.200   5.674 -0.1803  0.0060 -0.1188
   53POPC   C1B  553   0.876   3.026   5.052 -0.3001 -0.1953  0.2410
   53POPC   C2B  554   0.779   2.984   5.475  0.0213  0.1475 -0.0191
   53POPC   C3B  555   0.605   2.790   5.854 -0.0927 -0.1506  0.1107
   53POPC   C4B  556   0.521   2.525   6.288 -0.0457  0.0800  0.0086
   54POPC   NC3  557   3.322   4.427   3.866 -0.3713 -0.1399 -0.1653
   54POPC   PO4  558   3.413   4.453   4.261  0.1821  0.2432  0.0050
   54POPC   GL1  559   3.557   4.469   4.631 -0.3691  0.2617 -0.2221
   54POPC   GL2  560   3.809   4.554   4.652 -0.5137  0.1918  0.1583
   54POPC   C1A  561   3.483   4.841   4.928  0.0966 -0.1142 -0.0722
   54POPC   D2A  562   3.616   5.101   5.312 -0.1704  0.2604 -0.0955
   54POPC   C3A  563   3.754   4.923   5.738 -0.1359 -0.1246  0.0265
   54POPC   C4A  564   3.813   4.640   6.118 -0.1435 -0.1539 -0.1855
   54POPC   C1B  565   3.930   4.665   5.019  0.4927  0.1471 -0.1942
   54POPC   C2B  566   3.984   4.567   5.409  0.0412  0.2818  0.0874
   54POPC   C3B  567   4.311   4.718   5.742 -0.2052 -0.1025 -0.1345
   54POPC   C4B  568   4.739   4.731   5.927  0.0761 -0.0330 -0.1356
   55POPC   NC3  569   3.793   3.069   3.516  0.0975 -0.1610  0.3652
   55POPC   PO4  570   3.979   3.356   3.716  0.1605 -0.2115  0.1423
   55POPC   GL1  571   4.081   3.203   4.084 -0.2159 -0.0602  0.0070
   55POPC   GL2  572   4.124   3.455   4.222  0.0802  0.0829 -0.1984
   55POPC   C1A  573   3.742   3.080   4.273  0.2088  0.0200 -0.0252
   55POPC   D2A  574   3.306   3.008   4.394  0.0108 -0.2674 -0.0025
   55POPC   C3A  575   3.345   2.802   4.779  0.1369  0.0335 -0.3716
   55POPC   C4A  576   3.111   2.907   5.219 -0.1572  0.3255  0.2883
   55POPC   C1B  577   4.077   3.485   4.581 -0.1175  0.0162 -0.0396
   55POPC   C2B  578   4.180   3.214   4.872  0.0452  0.2308  0.1775
   55POPC   C3B  579   4.445   3.009   5.279  0.2371  0.3038  0.1028
   55POPC   C4B  580   4.518   2.898   5.726 -0.0896 -0.2059 -0.0626
   56POPC   NC3  581   4.468   3.645   3.770  0.2974  0.3869 -0.1171
   56POPC   PO4  582   4.445   3.950   4.048 -0.2378  0.0890 -0.0887
   56POPC   GL1  583   4.656   3.902   4.396 -0.2419 -0.1099 -0.0224
   56POPC   GL2  584   4.373   3.765   4.481  0.2367 -0.0137  0.0293
   56POPC   C1A  585   4.623   4.125   4.802 -0.0318 -0.2848 -0.2191
   56POPC   D2A  586   4.738   4.410   5.208  0.0467 -0.2158  0.1886
   56POPC   C3A  587   4.713   4.343   5.650  0.0222 -0.0377 -0.2337
   56POPC   C4A  588   4.916   4.170   6.072  0.1319 -0.0332  0.1881
   56POPC   C1B  589   4.124   3.891   4.711 -0.1203 -0.2813  0.0696
   56POPC   C2B  590   3.783   4.068   4.818 -0.1312 -0.1407  0.3113
   56POPC   C3B  591   3.624   4.336   5.183  0.0169 -0.0712  0.0084
   56POPC   C4B  592   3.290   4.678   5.347 -0.4342  0.0131  0.0311
   57POPC   NC3  593   2.728   1.336   3.679  0.2391  0.2350 -0.4242
   57POPC   PO4  594   2.565   1.105   3.948  0.1592  0.0473 -0.0758
   57POPC   GL1  595   2.598   0.854   4.341 -0.1289 -0.3812 -0.0363
   57POPC   GL2  596   2.564   1.142   4.424  0.1152  0.1015  0.2622
   57POPC   C1A  597   2.446   0.730   4.659 -0.0625 -0.1331 -0.1302
   57POPC   D2A  598   2.424   0.783   5.145  0.2026  0.1232 -0.3508
   57POPC   C3A  599   2.291   0.845   5.587  0.2068  0.1607  0.0706
   57POPC   C4A  600   2.150   1.036   6.065 -0.0881 -0.1223 -0.2956
   57POPC   C1B  601   2.270   1.132   4.651  0.0792  0.2573  0.2387
   57POPC   C2B  602   2.039   0.983   4.898 -0.0074 -0.0585  0.0419
   57POPC   C3B  603   1.835   0.920   5.335  0.1265  0.1588  0.0249
   57POPC   C4B  604   1.827   0.719   5.773 -0.0062  0.2406 -0.0144
   58POPC   NC3  605   1.433   4.093   4.131  0.0019 -0.1487 -0.1245
   58POPC   PO4  606   1.061   3.941   4.257 -0.1716 -0.2199 -0.0447
   58POPC   GL1  607   1.016   3.563   4.519  0.0427 -0.1269 -0.0755
   58POPC   GL2  608   0.859   3.500   4.371  0.0123 -0.1777 -0.2707
   58POPC   C1A  609   0.875   3.495   4.920  0.1931 -0.1986  0.4635
   58POPC   D2A  610   0.637   3.429   5.389 -0.1260 -0.2342 -0.0092
   58POPC   C3A  611   0.178   3.467   5.515  0.0068  0.1534  0.0807
   58POPC   C4A  612  -0.035   3.309   5.982  0.1101 -0.1223  0.1430
   58POPC   C1B  613   0.545   3.487   4.573 -0.1539 -0.2246  0.2505
   58POPC   C2B  614   0.338   3.533   4.918 -0.0789 -0.0345  0.0010
   58POPC   C3B  615  -0.087   3.577   5.110  0.0566 -0.0500 -0.0213
   58POPC   C4B  616  -0.559   3.634   5.083  0.0047  0.1364 -0.1702
   59POPC   NC3  617   1.020   1.852   4.011 -0.0695  0.0601 -0.0232
   59POPC   PO4  618   1.401   1.746   3.885  0.0181  0.0591  0.0307
   59POPC   GL1  619   1.593   1.626   4.173 -0.2900 -0.1145 -0.1262
   59POPC   GL2  620   1.425   1.503   4.300 -0.0038 -0.1498 -0.1304
   59POPC   C1A  621   1.595   1.807   4.608 -0.4020 -0.1358  0.1373
   59POPC   D2A  622   1.845   1.876   5.019 -0.0069 -0.4250 -0.5399
   59POPC   C3A  623   1.703   1.617   5.375 -0.2101 -0.0750 -0.0161
   59POPC   C4A  624   1.658   1.331   5.802  0.1207  0.2310 -0.1738
   59POPC   C1B  625   1.256   1.495   4.674 -0.3665 -0.3248  0.0370
   59POPC   C2B  626   1.316   1.701   5.061 -0.2202 -0.1698  0.2034
   59POPC   C3B  627   1.244   1.990   5.388 -0.0294 -0.2609  0.0153
   59POPC   C4B  628   1.400   2.356   5.716 -0.0917  0.0084  0.1647
   60POPC   NC3  629   2.101   0.657   3.788 -0.1866  0.0155  0.1666
   60POPC   PO4  630   1.985   0.409   4.063  0.2096  0.1499 -0.0044
   60POPC   GL1  631   1.731   0.376   4.416 -0.4266 -0.1264  0.0514
   60POPC   GL2  632   1.606   0.633   4.413  0.3959 -0.1766  0.2041
   60POPC   C1A  633   1.887   0.480   4.783 -0.0681 -0.3588  0.0503
   60POPC   D2A  634   2.028   0.459   5.270 -0.1472 -0.0758 -0.1927
   60POPC   C3A  635   2.426   0.375   5.418  0.1166  0.2338  0.0336
   60POPC   C4A  636   2.834   0.363   5.636 -0.2127  0.1208 -0.2776
   60POPC   C1B  637   1.412   0.632   4.713  0.0812 -0.0542  0.0039
   60POPC   C2B  638   1.404   0.722   5.152  0.1534 -0.1063  0.0604
   60POPC   C3B  639   1.361   0.829   5.645  0.1784  0.0438  0.0320
   60POPC   C4B  640   1.198   0.745   6.136 -0.2151 -0.1220 -0.2947
   61POPC   NC3  641   0.737   0.203   4.382 -0.1847 -0.0870  0.0847
   61POPC   PO4  642   1.103   0.210   4.500 -0.4329  0.1063 -0.2398
   61POPC   GL1  643   1.263   0.307   4.906  0.1624  0.0055 -0.0137
   61POPC   GL2  644   1.039   0.534   4.964 -0.1023 -0.5453  0.0949
   61POPC   C1A  645   1.622   0.161   5.254 -0.0451  0.2206  0.5191
   61POPC   D2A  646   1.851   0.159   5.734  0.1402  0.2016  0.0752
   61POPC   C3A  647   2.225   0.416   5.932  0.2868  0.0773 -0.1506
   61POPC   C4A  648   2.584   0.747   5.968  0.0573  0.0825  0.0916
   61POPC   C1B  649   1.001   0.627   5.316 -0.0225  0.1022 -0.1708
   61POPC   C2B  650   0.959   0.539   5.695 -0.0869 -0.3497 -0.1703
   61POPC   C3B  651   1.370   0.357   5.903  0.1357  0.1206  0.1085
   61POPC   C4B  652   1.712   0.297   6.212  0.0213 -0.1446 -0.1262
   62POPC   NC3  653   0.983   1.354   4.304 -0.1191 -0.0761  0.0083
   62POPC   PO4  654   0.714   1.125   4.065 -0.1217 -0.0238 -0.2838
   62POPC   GL1  655   0.551   1.221   4.439  0.1383 -0.1423 -0.0468
   62POPC   GL2  656   0.483   1.007   4.624  0.1568 -0.3395 -0.2213
   62POPC   C1A  657   0.594   1.608   4.709  0.1151 -0.1478  0.0330
   62POPC   D2A  658   0.523   2.064   4.853  0.0059  0.0746 -0.0008
   62POPC   C3A  659   0.453   2.213   5.288  0.0810 -0.3123 -0.1046
   62POPC   C4A  660   0.249   2.400   5.662 -0.0521 -0.0531 -0.2649
   62POPC   C1B  661   0.442   1.172   4.922 -0.1396  0.0101 -0.0348
   62POPC   C2B  662   0.440   1.293   5.332  0.3231 -0.0802 -0.1644
   62POPC   C3B  663   0.373   1.201   5.835  0.0993 -0.1716 -0.0192
   62POPC   C4B  664   0.236   1.041   6.261  0.5278  0.0088  0.2034
   63POPC   NC3  665   3.105   2.400   3.555 -0.0733  0.2574 -0.2236
   63POPC   PO4  666   3.066   2.667   3.822 -0.0934 -0.0975 -0.0377
   63POPC   GL1  667   3.105   2.360   4.129 -0.1459  0.0675  0.1223
   63POPC   GL2  668   3.399   2.379   4.120 -0.2438 -0.2013  0.0563
   63POPC   C1A  669   3.161   2.316   4.588 -0.0920 -0.4544  0.1070
   63POPC   D2A  670   3.483   2.378   4.995 -0.0597 -0.3535  0.0597
   63POPC   C3A  671   3.156   2.269   5.300  0.1366  0.4021 -0.3615
   63POPC   C4A  672   2.748   2.059   5.619  0.1046  0.0681  0.1323
   63POPC   C1B  673   3.608   2.359   4.441  0.0232 -0.1334 -0.1225
   63POPC   C2B  674   3.838   2.606   4.628  0.2047 -0.3926 -0.1047
   63POPC   C3B  675   4.038   2.752   5.080 -0.0798  0.0636  0.0436
   63POPC   C4B  676   4.079   2.913   5.565  0.1628 -0.1539 -0.0954
   64POPC   NC3  677   2.403   2.050   3.538  0.1293 -0.2850 -0.1061
   64POPC   PO4  678   2.627   1.841   3.755  0.3180 -0.0084  0.0234
   64POPC   GL1  679   2.625   1.952   4.239 -0.0218  0.1082  0.2892
   64POPC   GL2  680   2.902   1.964   4.248 -0.0750  0.3980 -0.2023
   64POPC   C1A  681   2.641   2.236   4.596 -0.2670 -0.0742 -0.0715
   64POPC   D2A  682   2.857   2.682   4.787 -0.3857 -0.2868  0.2961
   64POPC   C3A  683   2.967   3.177   4.815  0.0634  0.2092  0.1165
   64POPC   C4A  684   3.022   3.533   5.104 -0.2807 -0.2275 -0.2480
   64POPC   C1B  685   2.950   1.922   4.596 -0.1643  0.1707  0.3062
   64POPC   C2B  686   3.060   1.772   4.975 -0.1783 -0.1294  0.2748
   64POPC   C3B  687   3.313   1.726   5.411  0.3554  0.0795 -0.0012
   64POPC   C4B  688   3.620   1.675   5.770 -0.1495  0.0090  0.0130
   65POPC   NC3  689   2.260   3.624   4.269  0.0136  0.3294 -0.2993
   65POPC   PO4  690   2.028   3.928   4.348 -0.1583  0.1897 -0.0650
   65POPC   GL1  691   2.038   4.087   4.752 -0.1795  0.0069 -0.2140
   65POPC   GL2  692   2.073   4.349   4.716  0.3830 -0.3333  0.1587
   65POPC   C1A  693   1.902   4.113   5.174  0.1141 -0.1157 -0.2489
   65POPC   D2A  694   1.583   4.161   5.634 -0.0302 -0.0245  0.1421
   65POPC   C3A  695   1.755   4.285   6.070 -0.2166 -0.1066  0.0670
   65POPC   C4A  696   1.634   4.245   6.549 -0.0044  0.2350 -0.0799
   65POPC   C1B  697   2.000   4.574   4.962  0.2377 -0.0460  0.0755
   65POPC   C2B  698   2.129   4.462   5.382  0.1989  0.0665 -0.2325
   65POPC   C3B  699   2.090   4.113   5.727 -0.1254  0.3616  0.0198
   65POPC   C4B  700   2.154   3.674   6.010 -0.1715  0.1119  0.3427
   66POPC   NC3  701   1.706   2.975   4.473  0.1240  0.3947  0.0562
   66POPC   PO4  702   2.073   3.117   4.323  0.1068  0.0622 -0.0158
   66POPC   GL1  703   2.299   2.946   4.561  0.0261 -0.0213 -0.1665
   66POPC   GL2  704   2.177   2.719   4.604  0.2742 -0.1266 -0.3292
   66POPC   C1A  705   2.479   2.967   5.002 -0.2150 -0.0150  0.3482
   66POPC   D2A  706   2.639   3.034   5.478  0.1616  0.0960  0.0676
   66POPC   C3A  707   2.992   3.264   5.526  0.1935  0.1623 -0.2358
   66POPC   C4A  708   3.354   3.447   5.473  0.1461  0.0026 -0.0176
   66POPC   C1B  709   2.337   2.516   4.841  0.2043  0.0914  0.0811
   66POPC   C2B  710   2.651   2.376   5.148  0.4592  0.0835 -0.0473
   66POPC   C3B  711   2.879   2.576   5.537  0.0319  0.0538 -0.0854
   66POPC   C4B  712   3.190   2.901   5.823 -0.1944 -0.1239 -0.2666
   67POPC   NC3  713   0.992   0.871   3.764  0.1896  0.0328 -0.0998
   67POPC   PO4  714   1.099   0.799   4.155 -0.2619  0.0178 -0.2065
   67POPC   GL1  715   0.936   0.866   4.490  0.0741  0.0986 -0.0440
   67POPC   GL2  716   0.874   0.637   4.559 -0.2256  0.2250 -0.2149
   67POPC   C1A  717   1.065   0.996   4.868 -0.0861  0.0246 -0.0517
   67POPC   D2A  718   1.312   1.214   5.257  0.3673  0.3119 -0.0060
   67POPC   C3A  719   1.173   1.522   5.566 -0.2248 -0.0867  0.2505
   67POPC   C4A  720   0.769   1.549   5.738  0.2184 -0.2064 -0.0240
   67POPC   C1B  721   0.646   0.482   4.788  0.1123  0.1465  0.1010
   67POPC   C2B  722   0.645   0.332   5.143  0.2136 -0.2101  0.1363
   67POPC   C3B  723   0.637   0.191   5.595 -0.1157  0.0129 -0.0978
   67POPC   C4B  724   0.833   0.152   6.033  0.0794 -0.3301 -0.0208
   68POPC   NC3  725   0.489   4.273   3.614 -0.0784 -0.0021 -0.1525
   68POPC   PO4  726   0.522   4.476   3.929  0.0146 -0.0985 -0.0410
   68POPC   GL1  727   0.190   4.627   4.121 -0.2842 -0.0835 -0.3467
   68POPC   GL2  728   0.174   4.330   4.252  0.0106  0.1930  0.2509
   68POPC   C1A  729   0.132   4.937   4.456  0.0921  0.0997 -0.2602
   68POPC   D2A  730   0.246   5.029   4.904 -0.2713 -0.1214  0.0146
   68POPC   C3A  731   0.601   5.258   5.169  0.2158 -0.2177  0.3010
   68POPC   C4A  732   0.891   5.508   5.504  0.0645  0.0859 -0.1573
   68POPC   C1B  733   0.297   4.476   4.543  0.0701 -0.2549  0.2436
   68POPC   C2B  734   0.554   4.406   4.838 -0.1305 -0.4412 -0.0809
   68POPC   C3B  735   0.891   4.401   5.213 -0.1619  0.0869 -0.0459
   68POPC   C4B  736   1.196   4.573   5.548  0.2862  0.0152 -0.2748
   69POPC   NC3  737   3.522   3.594   3.991  0.0840 -0.2705  0.1109
   69POPC   PO4  738   3.576   3.963   3.903  0.3029 -0.0513  0.1181
   69POPC   GL1  739   3.567   4.023   4.331  0.1876 -0.2742 -0.1087
   69POPC   GL2  740   3.234   3.852   4.304 -0.1040 -0.2472 -0.0156
   69POPC   C1A  741   3.710   3.696   4.481  0.1923  0.2461  0.0919
   69POPC   D2A  742   3.589   3.321   4.728 -0.2961  0.0305  0.0644
   69POPC   C3A  743   3.717   3.120   5.120  0.0904  0.2062 -0.1546
   69POPC   C4A  744   3.633   2.733   5.384 -0.1692  0.0375  0.2877
   69POPC   C1B  745   3.324   3.857   4.641 -0.2383 -0.0816 -0.2081
   69POPC   C2B  746   3.407   3.867   5.054  0.0590 -0.0276 -0.0614
   69POPC   C3B  747   3.593   3.909   5.477 -0.3448 -0.1020 -0.2094
   69POPC   C4B  748   4.005   4.189   5.733 -0.0780  0.1449 -0.1011
   70POPC   NC3  749   0.046   2.634   3.296 -0.0346 -0.4379 -0.3614
   70POPC   PO4  750   0.104   2.687   3.677 -0.3612  0.4173 -0.0179
   70POPC   GL1  751   0.058   2.508   3.920  0.0788 -0.2716 -0.0340
   70POPC   GL2  752   0.089   2.659   4.237 -0.1869 -0.4280  0.1814
   70POPC   C1A  753   0.093   2.193   4.182  0.0645  0.5024 -0.0605
   70POPC   D2A  754   0.115   1.678   4.350 -0.0132  0.3361 -0.0822
   70POPC   C3A  755   0.074   1.412   4.766 -0.1493 -0.2132  0.1260
   70POPC   C4A  756  -0.010   1.490   5.241 -0.0074  0.0204 -0.0364
   70POPC   C1B  757  -0.107   2.546   4.512 -0.0084 -0.3887  0.0627
   70POPC   C2B  758  -0.213   2.329   4.846  0.1943 -0.2432 -0.1734
   70POPC   C3B  759  -0.503   2.222   5.153 -0.0001  0.2424  0.5499
   70POPC   C4B  760  -0.723   2.160   5.593 -0.1780 -0.3011  0.2555
   71W        W  761   4.306   1.517   1.764  0.2910 -0.1787 -0.0473
   72W        W  762   3.037   2.164   1.087 -0.1589  0.0858  0.0703
   73W        W  763   2.538   4.116   8.324 -0.0439  0.0104 -0.0837
   74W        W  764   1.367   2.040   0.301 -0.0796  0.0511  0.6162
   75W        W  765   0.383   2.900  11.486 -0.2925  0.1417  0.2799
   76W        W  766   2.281   3.639   8.920  0.0327 -0.4222  0.2078
   77W        W  767   0.324   3.861  10.910  0.0766 -0.2719  0.0790
   78W        W  768   2.352   2.373   2.880 -0.1855  0.7247  0.0247
   79W        W  769   2.927   4.323   1.181  0.2932  0.2324 -0.1937
   80W        W  770   2.970   0.548   2.073  0.0431 -0.0239  0.4877
   81W        W  771   3.239   1.958   2.981 -0.0153  0.3104  0.3777
   82W        W  772   0.917   1.025  10.812 -0.3640 -0.1466  0.1890
   83W        W  773   3.335   0.273  10.143  0.0818 -0.1260 -0.3644
   84W        W  774   2.228   2.571  11.333  0.0872  0.0075  0.1263
   85W        W  775   4.438   2.121   2.553 -0.1683  0.0862  0.0071
   86W        W  776   0.017   3.040   0.552  0.0609  0.2121  0.0893
   87W        W  777   4.067   4.312   2.737  0.3013  0.1274  0.1460
   88W        W  778   4.022   0.430   2.149  0.1072 -0.2577 -0.1477
   89W        W  779   2.321   4.222   9.848  0.2180  0.2901 -0.1578
   90W        W  780   1.156   3.004   9.712 -0.0611  0.0165 -0.0920
   91W        W  781   1.203   1.630   7.886  0.2269 -0.2490  0.2211
   92W        W  782   2.723   1.590   8.525  0.4626 -0.0245  0.3781
   93W        W  783   0.371   0.682   1.243  0.1384  0.1203 -0.0218
   94W        W  784   2.220   2.338   0.194 -0.0582  0.0393 -0.1382
   95W        W  785   0.445   1.723   3.460 -0.3423  0.2164 -0.1578
   96W        W  786   1.745   4.246   9.265  0.0831  0.1509 -0.0077
   97W        W  787   0.717   1.722   2.556 -0.2903  0.1653  0.0597
   98W        W  788   1.455   1.064   9.706 -0.5296  0.5984  0.0056
   99W        W  789   4.289   2.683  10.975  0.2191 -0.2975 -0.0132
  100W        W  790   2.588   0.178   9.924  0.0508 -0.0854 -0.0773
  101W        W  791   1.184   1.734  11.352 -0.1609  0.2461 -0.0980
  102W        W  792   2.877   2.038   3.293  0.1651  0.0721  0.0855
  103W        W  793   2.712   3.293   1.690  0.3133 -0.1935 -0.0455
  104W        W  794   4.111   0.471   9.523  0.1283 -0.0515 -0.0007
  105W        W  795   2.080   0.558   8.059 -0.2980 -0.0378 -0.0822
  106W        W  796   1.727   0.021   9.711 -0.2541  0.2540 -0.1621
  107W        W  797   0.124   3.592  11.356 -0.1272 -0.1122  0.0612
  108W        W  798   3.503   0.248   7.993 -0.0031 -0.0684  0.1667
  109W        W  799   2.545   0.629  11.041  0.0737  0.0442  0.2979
  110W        W  800   3.798   0.924   1.142  0.0146 -0.0828 -0.1259
  111W        W  801   3.363   0.072   8.776 -0.1848 -0.1029  0.4004
  112W        W  802   2.542   3.499   9.875 -0.0818 -0.0080 -0.0951
  113W        W  803   1.338   1.064   1.197 -0.0597 -0.1349  0.1796
  114W        W  804   4.053   1.993   8.385 -0.1687 -0.1811  0.2722
  115W        W  805   1.976   1.667  11.225 -0.0354 -0.0998 -0.2058
  116W        W  806   4.312   1.849   9.446 -0.1429 -0.2503 -0.1600
  117W        W  807   3.433   1.105  10.044 -0.3100  0.2751 -0.0115
  118W        W  808   1.302   2.225  10.457 -0.0726 -0.0051  0.0114
  119W        W  809   0.801   0.581   7.427  0.2185  0.0992  0.1114
  120W        W  810   0.767   0.407  11.320 -0.2295 -0.1036  0.1059
  121W        W  811   3.636   1.484  11.354  0.0262 -0.0782 -0.1005
  122W        W  812   3.409   1.384  10.923  0.0777 -0.3516  0.0231
  123W        W  813   4.442   0.843   0.529  0.1274 -0.0776  0.0677
  124W        W  814   3.959   0.739   0.698 -0.0595 -0.1225 -0.0525
  125W        W  815   1.878   2.722   0.315  0.0361  0.3950 -0.3153
  126W        W  816   3.318   3.061   0.611  0.0144 -0.2716 -0.2277
  127W        W  817   2.507   0.648   0.885 -0.5247 -0.0779  0.0859
  128W        W  818   1.980   1.494   1.059 -0.4118 -0.1102 -0.4081
  129W        W  819   3.925   0.509  11.221 -0.0978  0.0026 -0.0479
  130W        W  820   2.308   1.059   1.328 -0.0321 -0.1676  0.1092
  131W        W  821   2.346   1.935   8.749 -0.0359  0.1050  0.3899
  132W        W  822   1.675   0.301   0.042  0.4504  0.0098 -0.0665
  133W        W  823   0.565   1.851   8.686  0.1400 -0.1730  0.2243
  134W        W  824   2.510   1.855   8.222 -0.2677 -0.1806  0.1481
  135W        W  825   0.516   0.896   8.278 -0.2703  0.1182 -0.0355
  136W        W  826   2.694   2.689  11.511  0.0660 -0.1241  0.0973
  137W        W  827   1.995   2.186   2.320 -0.0199 -0.1003 -0.3198
  138W        W  828   0.873   3.579   1.906  0.0169 -0.0922  0.0909
  139W        W  829   3.210   2.922   1.088  0.6417 -0.0028  0.2738
  140W        W  830   3.214   1.146   3.585  0.0851 -0.1392 -0.0964
  141W        W  831   0.832   2.635   2.441 -0.1668  0.0552  0.4589
  142W        W  832   2.811   2.926   1.376  0.0675  0.0383 -0.1725
  143W        W  833   3.061   1.094   2.551 -0.1000 -0.2011 -0.0694
  144W        W  834   3.888   4.398   2.292 -0.1441  0.1335  0.0327
  145W        W  835   3.333   3.320   9.961  0.2207  0.2018 -0.1747
  146W        W  836   2.537   3.028   2.114  0.1515  0.0210  0.0266
  147W        W  837   3.743   1.564   1.814 -0.3119  0.3255 -0.0601
  148W        W  838   2.136   3.941   1.794  0.2089  0.2121 -0.0858
  149W        W  839   0.180   2.119   3.395 -0.1680 -0.2886  0.1774
  150W        W  840   1.985   0.636  11.062  0.1104 -0.2454 -0.1804
  151W        W  841   0.506   0.340   9.828  0.3197 -0.2006  0.0344
  152W        W  842   0.351   4.335   2.241  0.2863 -0.2904 -0.0567
  153W        W  843   0.065   2.322   2.017  0.1250 -0.1487 -0.0190
  154W        W  844   1.917   0.793   8.811 -0.0853 -0.0998 -0.0436
  155W        W  845   1.625   1.421  10.086  0.0071  0.3918 -0.1835
  156W        W  846   4.043   2.023   1.962 -0.0679  0.0124  0.0152
  157W        W  847   3.471   0.088   9.307  0.0060 -0.0817  0.3489
  158W        W  848   0.696   2.258  11.045  0.1198 -0.3163  0.2022
  159W        W  849   0.748   0.173   2.071 -0.1716 -0.0425 -0.1182
  160W        W  850   0.630   4.300   0.406 -0.0273  0.4231  0.4519
  161W        W  851   4.437   0.285   1.766  0.1468 -0.0103  0.2546
  162W        W  852   2.813   2.656   9.730 -0.2611  0.0164 -0.1935
  163W        W  853   1.719   1.793   3.479  0.1664  0.0262  0.0542
  164W        W  854   2.224   0.073   3.786 -0.0330  0.1553 -0.2492
  165W        W  855   3.629   0.093   3.092  0.1755 -0.0655 -0.4249
  166W        W  856   1.404   2.740  10.123 -0.1804  0.2243 -0.0955
  167W        W  857   3.784   3.550  10.840 -0.0963 -0.1150  0.0842
  168W        W  858   2.752   3.423   7.903 -0.2973 -0.1557  0.1827
  169W        W  859   1.676   2.735   2.471  0.4180 -0.0489  0.0873
  170W        W  860   1.790   3.993  11.155  0.0072  0.0618  0.0141
  171W        W  861   4.164   1.468  11.400  0.5998  0.0018 -0.0418
  172W        W  862   3.688   0.254   0.712  0.2501  0.2107 -0.1447
  173W        W  863   3.017   2.109   1.689 -0.0911 -0.1607 -0.0097
  174W        W  864   0.588   0.051  11.579  0.3786 -0.0723 -0.2110
  175W        W  865   4.005   2.766  10.546 -0.1160 -0.2449 -0.1086
  176W        W  866   4.163   1.040   9.638  0.2159  0.1514 -0.1793
  177W        W  867   2.546   4.384   3.356 -0.2366  0.1933 -0.0345
  178W        W  868   1.793   0.291   0.961  0.2631 -0.1933 -0.0846
  179W        W  869   0.504   2.823   8.943 -0.0189 -0.0136  0.3649
  180W        W  870   4.263   1.372   4.158  0.0053 -0.1918 -0.1655
  181W        W  871   1.074   3.425   8.630 -0.0534 -0.1906  0.1647
  182W        W  872   4.416   2.489   1.167 -0.0327  0.1237 -0.1588
  183W        W  873   2.319   0.440   0.186 -0.0388 -0.0323 -0.0235
  184W        W  874   1.695   3.083   9.859  0.1287  0.3490  0.0575
  185W        W  875   1.785   3.010   2.068 -0.1288  0.0106 -0.0374
  186W        W  876   1.521   1.204   1.632  0.0355 -0.0315 -0.4050
  187W        W  877   1.434   2.981   1.317 -0.0101 -0.0677  0.1012
  188W        W  878   3.575   0.277   9.741  0.1426 -0.0145 -0.0528
  189W        W  879   4.030   3.968   7.711  0.0891  0.0910 -0.1887
  190W        W  880   2.412   0.883   0.405 -0.2512  0.4476  0.0338
  191W        W  881   0.081   1.809   3.764 -0.0664  0.1269  0.1967
  192W        W  882   3.424   0.987   4.022  0.0612 -0.2597 -0.1489
  193W        W  883   3.575   1.059   2.723  0.2815 -0.0533 -0.1789
  194W        W  884   3.867   0.626  10.715 -0.0122  0.2326 -0.0376
  195W        W  885   0.927   1.586  10.185 -0.1089  0.0155  0.1656
  196W        W  886   4.241   2.310   3.051 -0.1161 -0.0528 -0.2473
  197W        W  887   4.022   4.439  11.286 -0.5770 -0.1177  0.0295
  198W        W  888   0.661   0.800   9.918 -0.1005 -0.2120 -0.2725
  199W        W  889   2.599   3.302   8.609 -0.0021  0.0279  0.0636
  200W        W  890   3.753   3.752   7.297  0.1930 -0.1418 -0.0730
  201W        W  891   1.275   1.275   3.916  0.0229  0.0086 -0.0511
  202W        W  892   2.078   0.862   1.748 -0.0659  0.0010 -0.0301
  203W        W  893   0.225   2.439   2.907  0.0918 -0.0160  0.1763
  204W        W  894   0.827   3.266  11.397  0.1999  0.1369  0.2231
  205W        W  895   0.634   3.674   3.430  0.1269  0.1638  0.0249
  206W        W  896   0.368   0.099  11.104 -0.3340 -0.0082  0.0310
  207W        W  897   2.650   0.178   1.916  0.0369  0.0583  0.1265
  208W        W  898   4.418   2.167   9.012 -0.1057 -0.1064 -0.2079
  209W        W  899   2.331   2.076   9.230 -0.0194 -0.0535  0.1329
  210W        W  900   0.259   0.348   2.147 -0.0763 -0.1452 -0.1213
  211W        W  901   4.131   3.638  10.466  0.1016 -0.0089  0.1004
  212W        W  902   2.598   1.640   3.216  0.0028 -0.0986  0.1091
  213W        W  903   2.817   3.400   2.340 -0.1307  0.0119  0.0035
  214W        W  904   0.588   4.262   8.605  0.0948  0.2406 -0.3070
  215W        W  905   4.426   3.173   0.064  0.1128 -0.3950 -0.2925
  216W        W  906   1.421   2.468   0.471  0.0163  0.2316 -0.2096
  217W        W  907   2.481   2.344   8.318 -0.0359  0.1203  0.2190
  218W        W  908   3.486   3.908   2.229 -0.1957  0.5959 -0.0448
  219W        W  909   0.073   1.636   2.571  0.1350 -0.1492 -0.1733
  220W        W  910   1.128   0.007   2.720  0.2680 -0.0170 -0.0202
  221W        W  911   3.820   0.755   0.234 -0.2827  0.2670 -0.0747
  222W        W  912   3.205   1.868   8.556  0.0821 -0.3815  0.0141
  223W        W  913   2.695   2.282   3.897  0.0990  0.2450 -0.4515
  224W        W  914   3.073   3.072   8.777 -0.0355  0.2715 -0.1821
  225W        W  915   4.184   3.497   0.676 -0.1763 -0.3084 -0.1767
  226W        W  916   2.059   0.862   4.333 -0.5130 -0.1713  0.0388
  227W        W  917   3.011   3.627  10.235 -0.0414  0.0995  0.2190
  228W        W  918   3.953   2.347   1.318 -0.0430 -0.0033  0.0675
  229W        W  919   3.089   3.438   4.180  0.1872 -0.2834  0.2653
  230W        W  920   4.074   3.937   2.410 -0.1420  0.0533  0.1759
  231W        W  921   1.401   4.009   9.943 -0.0407  0.0197  0.1117
  232W        W  922   1.749   2.421  11.505 -0.1228 -0.4080 -0.0067
  233W        W  923   3.343   2.031   2.509 -0.4304  0.0777 -0.0616
  234W        W  924   2.943   1.152   2.088  0.0276 -0.0946 -0.1756
  235W        W  925   0.068   1.892   8.514  0.0378 -0.4215 -0.2969
  236W        W  926   0.544   2.527   1.376  0.3409  0.1299  0.1228
  237W        W  927   1.837   0.807   9.328 -0.0237  0.2708 -0.1576
  238W        W  928   1.920   0.349   9.106  0.0656  0.1189  0.3798
  239W        W  929   1.328   3.946   8.948 -0.1004  0.0912  0.1615
  240W        W  930   0.637   3.337   8.911 -0.1995  0.0927  0.1966
  241W        W  931   2.104   3.800   1.118  0.0505 -0.0570 -0.0940
  242W        W  932   3.879   0.065   4.039  0.0473 -0.2717 -0.0186
  243W        W  933   0.484   4.403   2.707  0.1750 -0.1953  0.0842
  244W        W  934   4.224   0.774   8.519 -0.3731  0.1831  0.1218
  245W        W  935   3.673   1.305   9.648  0.0063 -0.1150 -0.0519
  246W        W  936   4.188   3.930  11.535  0.1716  0.0194 -0.1078
  247W        W  937   2.045   4.021   8.445 -0.1758  0.1349 -0.1182
  248W        W  938   3.433   1.188   1.320  0.1672  0.1309  0.0125
  249W        W  939   3.342   3.730   3.140 -0.1541  0.0525  0.2871
  250W        W  940   3.069   0.532   8.418 -0.2202 -0.0793  0.0477
  251W        W  941   0.238   2.884  10.138  0.2754  0.1128  0.0305
  252W        W  942   1.941   1.201   2.127  0.0186  0.0395  0.5030
  253W        W  943   3.932   1.445   3.189 -0.2297  0.0342  0.1367
  254W        W  944   2.225   2.432   1.886 -0.1290  0.0312  0.3530
  255W        W  945   1.519   1.694  10.474  0.6074 -0.1023  0.1865
  256W        W  946   2.981   3.336   0.976  0.0885 -0.0400  0.2590
  257W        W  947   1.605   3.826   2.604  0.0313  0.0515  0.0270
  258W        W  948   4.341   2.025   7.656  0.1423  0.0049  0.1317
  259W        W  949   1.817   3.728   1.529  0.0435  0.3988  0.0265
  260W        W  950   3.563   4.037   9.041 -0.1444 -0.1054  0.3023
  261W        W  951   1.617   0.778   1.913 -0.1214 -0.0627  0.0203
  262W        W  952   3.223   1.338   8.527 -0.0565 -0.1869 -0.2386
  263W        W  953   0.457   1.724  10.273 -0.2825  0.1126  0.1079
  264W        W  954   1.693   1.830   2.508  0.0507  0.3126  0.0904
  265W        W  955   3.943   3.846   8.732  0.0173 -0.0578 -0.1475
  266W        W  956   0.373   1.089   0.878  0.2401  0.3006 -0.0080
  267W        W  957   2.055   1.482   2.617 -0.1889 -0.1351  0.0630
  268W        W  958   1.766   0.701   3.160 -0.0515 -0.0536  0.0845
  269W        W  959   2.535   3.454  10.485 -0.1658  0.1648 -0.0756
  270W        W  960   1.086   1.199   2.985  0.2836 -0.1403  0.3512
  271W        W  961   2.910   1.084  10.034 -0.2583 -0.1297 -0.2616
  272W        W  962   3.623   2.724   1.525  0.3428 -0.1214 -0.1747
  273W        W  963   0.314   0.851   2.166  0.1778 -0.2025 -0.3038
  274W        W  964   4.201   1.001   3.237 -0.0261  0.1331 -0.1238
  275W        W  965   0.357   2.078   1.171  0.4072  0.2227 -0.0768
  276W        W  966   1.395   2.292   2.512 -0.3215 -0.2361 -0.1496
  277W        W  967   0.174   3.551   9.656  0.4785 -0.1081 -0.1036
  278W        W  968   1.946   3.675   9.397 -0.0388 -0.0932  0.0910
  279W        W  969   3.331   1.858  10.975 -0.0283 -0.0480 -0.1013
  280W        W  970   1.083   1.549  10.852  0.0225 -0.0715 -0.3055
  281W        W  971   3.653   0.667  10.265 -0.3115  0.1614  0.0523
  282W        W  972   4.199   3.261   8.851 -0.1085  0.0717  0.2114
  283W        W  973   2.809   0.949   9.178 -0.4463 -0.0851 -0.0685
  284W        W  974   2.365   0.674   8.702  0.1802  0.2591 -0.1437
  285W        W  975   1.844   4.173  10.699  0.1300 -0.0688 -0.1213
  286W        W  976   2.638   0.856   9.664  0.1039  0.4008 -0.0887
  287W        W  977   1.851   3.199   3.074  0.1215 -0.0445 -0.1740
  288W        W  978   2.630   3.289   2.897 -0.3139 -0.3163 -0.1153
  289W        W  979   1.383   2.801   7.385  0.1671  0.0483  0.1418
  290W        W  980   1.191   2.495   9.138 -0.0475 -0.0194  0.1358
  291W        W  981   2.602   0.621   8.237 -0.0894  0.3542  0.0656
  292W        W  982   0.000   0.195   2.585  0.1295  0.2441  0.1737
  293W        W  983   2.976   0.725   3.407 -0.1022  0.0836  0.1293
  294W        W  984   0.557   0.386   1.671 -0.1340 -0.0834  0.0679
  295W        W  985   0.144   1.335   0.457 -0.0408 -0.1053  0.3015
  296W        W  986   2.806   2.265  10.120  0.1689 -0.2239  0.1775
  297W        W  987   0.400   1.527   9.333 -0.2346 -0.0496 -0.0110
  298W        W  988   4.343   0.914   1.012 -0.0832 -0.1164 -0.5000
  299W        W  989   0.562   2.582  10.563 -0.1910 -0.0765  0.3120
  300W        W  990   1.215   2.768   0.929 -0.0118 -0.0856  0.2361
  301W        W  991   3.465   3.791   8.283  0.2170 -0.1099  0.1016
  302W        W  992   1.105   1.251  11.381 -0.2078 -0.0967 -0.0751
  303W        W  993   0.872   2.101   1.272 -0.2250 -0.1037 -0.1009
  304W        W  994   1.476   1.925   3.030 -0.3428  0.0162 -0.1749
  305W        W  995   1.823   2.786   8.469 -0.1625  0.2789  0.1623
  306W        W  996   1.281   1.685   9.773 -0.0903  0.3759  0.1355
  307W        W  997   1.019   0.707   9.559 -0.1602  0.1189 -0.4893
  308W        W  998   0.269   3.808   8.102  0.2504 -0.1531 -0.0181
  309W        W  999   1.006   3.496  10.830 -0.0294  0.2270  0.3025
  310W        W 1000   0.786   0.652   0.203 -0.4252  0.0863 -0.0839
  311W        W 1001   4.143   2.823   3.805  0.0071 -0.1454 -0.1023
  312W        W 1002   2.730   3.931   9.754  0.0121  0.1709 -0.2318
  313W        W 1003   1.684   0.913  10.668  0.3262  0.1849  0.2920
  314W        W 1004   2.180   0.949  10.737  0.0360  0.1781 -0.0445
  315W        W 1005   3.251   2.578  10.145  0.1950 -0.0651 -0.4046
  316W        W 1006   2.243   2.206   1.392 -0.0101  0.0017 -0.1376
  317W        W 1007   1.364   1.151   8.144  0.3075  0.3300  0.1370
  318W        W 1008   2.703   0.396   2.506  0.1113 -0.0477 -0.0145
  319W        W 1009   0.284   3.465   4.166  0.0077  0.2528  0.2222
  320W        W 1010   0.859   3.028  10.889 -0.0518  0.2032  0.0241
  321W        W 1011   2.297   1.506   3.560 -0.0350 -0.1465  0.1694
  322W        W 1012   2.183   0.436   2.680 -0.2207  0.1273  0.0071
  323W        W 1013   1.198   0.716   7.688  0.1517 -0.1946 -0.0387
  324W        W 1014   1.431   2.616  11.171 -0.1526  0.0126 -0.0926
  325W        W 1015   4.034   3.999   3.722  0.0059  0.1408 -0.0424
  326W        W 1016   2.107   2.486   0.634  0.2183 -0.1968 -0.2555
  327W        W 1017   1.224   2.152   7.473 -0.1631 -0.0826  0.0395
  328W        W 1018   0.046   1.455   1.114 -0.1524 -0.5414 -0.0673
  329W        W 1019   4.232   0.703   8.034 -0.3108  0.2098  0.0483
  330W        W 1020   3.529   1.321   8.090 -0.0288 -0.0929 -0.0779
  331W        W 1021   4.364   4.473   2.130 -0.1565 -0.0818  0.3931
  332W        W 1022   2.370   3.059  10.056 -0.0286  0.1430  0.0065
  333W        W 1023   3.216   1.156   0.910  0.4242  0.0173 -0.1659
  334W        W 1024   1.137   0.835   8.686  0.1283 -0.0889  0.2308
  335W        W 1025   3.146   0.917  10.927 -0.0943  0.1608 -0.0201
  336W        W 1026   0.974   1.257   0.960  0.0562  0.0195  0.4427
  337W        W 1027   0.689   0.352   7.953 -0.2310  0.1017  0.1679
  338W        W 1028   4.122   2.485   8.107 -0.1457  0.2320 -0.1772
  339W        W 1029   1.724   4.357   8.644  0.4274 -0.0905 -0.4268
  340W        W 1030   3.169   3.461   0.018 -0.1374  0.0818  0.1984
  341W        W 1031   3.568   3.222  11.359  0.0539 -0.0543 -0.0401
  342W        W 1032   3.248   0.485   2.492 -0.3932 -0.0038  0.0199
  343W        W 1033   2.768   0.573  10.161  0.1791 -0.1658 -0.0563
  344W        W 1034   4.249   0.550   1.349 -0.2171  0.0116 -0.3545
  345W        W 1035   0.151   3.841  10.390  0.0535  0.1622 -0.1933
  346W        W 1036   1.358   2.089   9.491  0.1148 -0.2807  0.0522
  347W        W 1037   0.109   2.652   1.638  0.3230 -0.1378 -0.0195
  348W        W 1038   0.125   1.564   8.937  0.1194  0.3151  0.3733
  349W        W 1039   1.329   0.224   7.421 -0.1138  0.1779  0.1221
  350W        W 1040   2.649   3.638   3.990 -0.1267 -0.1163  0.4724
  351W        W 1041   0.430   3.289   2.305 -0.1850 -0.0252 -0.1052
  352W        W 1042   4.118   3.485   1.221 -0.0954  0.0407 -0.0170
  353W        W 1043   4.312   2.802   2.865 -0.0222 -0.0627 -0.0729
  354W        W 1044   0.228   1.707   1.535 -0.1190 -0.2079  0.0298
  355W        W 1045   2.138   1.592   3.073  0.0647  0.0172  0.0274
  356W        W 1046   3.463   2.477   1.058 -0.1551 -0.0927 -0.3831
  357W        W 1047   1.839   4.201  10.210 -0.2142 -0.2245  0.1121
  358W        W 1048   0.443   4.417   0.867 -0.0083 -0.1446  0.0459
  359W        W 1049   2.293   0.244   1.124  0.0130  0.2772  0.0547
  360W        W 1050   2.827   4.128  10.961 -0.0760  0.0198 -0.0395
  361W        W 1051   3.963   3.877   1.916  0.0314 -0.1380 -0.0172
  362W        W 1052   2.149   4.083   3.501  0.0125  0.3009 -0.3254
  363W        W 1053   0.467   1.242  10.088  0.0812  0.0856 -0.2203
  364W        W 1054   0.341   0.559   2.612  0.2656 -0.0317 -0.0248
  365W        W 1055   2.698   3.963   3.563 -0.0748  0.0782 -0.6728
  366W        W 1056   3.211   1.937   0.103  0.1324 -0.1516 -0.3505
  367W        W 1057   0.902   3.753  11.246 -0.0661  0.1029 -0.3795
  368W        W 1058   3.949   2.471  11.314 -0.2274 -0.1782  0.0989
  369W        W 1059   3.539   0.990   1.771  0.1526 -0.0534 -0.0807
  370W        W 1060   3.707   3.218  10.413  0.1528  0.1199 -0.3719
  371W        W 1061   3.880   0.712   2.951  0.0161  0.2657  0.0996
  372W        W 1062   2.499   4.294   2.658 -0.2873 -0.0478  0.1922
  373W        W 1063   1.212   0.275   0.646 -0.2285  0.0224 -0.1364
  374W        W 1064   1.302   2.882   2.763  0.1270  0.1982 -0.0347
  375W        W 1065   1.722   3.845   0.728 -0.0813 -0.2721  0.0845
  376W        W 1066   3.774   1.880   9.556 -0.2131  0.0350  0.2673
  377W        W 1067   2.054   1.685   2.158  0.0890 -0.0536  0.5558
  378W        W 1068   0.265   0.096   8.349 -0.0647  0.0535  0.1040
  379W        W 1069   1.515   1.515   9.355  0.2244  0.1339  0.0447
  380W        W 1070   4.003   1.327  10.944  0.2356  0.0898 -0.1713
  381W        W 1071   2.584   0.044   1.472  0.1982  0.1511 -0.3130
  382W        W 1072   0.655   0.778   8.740  0.1664 -0.2792 -0.3527
  383W        W 1073   0.636   0.290   9.001 -0.1379  0.1014 -0.1981
  384W        W 1074   1.490   1.204   8.693 -0.2632 -0.1424 -0.0735
  385W        W 1075   1.207   2.064  10.886  0.2099  0.1070 -0.1400
  386W        W 1076   0.073   2.189   8.089  0.2056 -0.0147 -0.1935
  387W        W 1077   4.068   3.514   0.176  0.0395  0.2573  0.1473
  388W        W 1078   1.854   1.071   8.410 -0.0566 -0.1002 -0.1817
  389W        W 1079   1.826   2.133   0.396  0.1984 -0.1556  0.0663
  390W        W 1080   2.608   3.771   2.606  0.0640 -0.1060  0.1886
  391W        W 1081   0.997   1.210   1.484  0.1620 -0.0832 -0.1606
  392W        W 1082   3.386   0.531   1.639  0.1051 -0.1207  0.3102
  393W        W 1083   1.383   0.207   1.272  0.1274  0.1875  0.1457
  394W        W 1084   4.412   2.344   8.557 -0.2368 -0.3149 -0.3422
  395W        W 1085   3.492   1.185   0.207  0.1535 -0.0145  0.2348
  396W        W 1086   3.331   0.105   1.357  0.2682 -0.1435 -0.1267
  397W        W 1087   3.607   3.282   0.282 -0.0856  0.1731 -0.3589
  398W        W 1088   2.021   2.432   8.147 -0.0467  0.2814  0.1155
  399W        W 1089   0.443   0.984   0.318 -0.3701  0.0015 -0.1205
  400W        W 1090   0.532   4.166  10.362  0.1232 -0.3043  0.0617
  401W        W 1091   0.341   1.949   7.734 -0.3017  0.2160 -0.0154
  402W        W 1092   2.911   2.529   7.747 -0.3716 -0.3213 -0.0139
  403W        W 1093   4.028   1.091   2.645 -0.1416  0.4584  0.0179
  404W        W 1094   3.026   2.862   2.725  0.0565 -0.0167 -0.1408
  405W        W 1095   2.480   0.189   0.669 -0.0638  0.1180  0.0613
  406W        W 1096   1.335   4.184   9.508  0.2365  0.1450  0.3377
  407W        W 1097   3.361   4.152  11.360  0.0540  0.3254  0.0679
  408W        W 1098   1.787   3.563   2.137  0.0093  0.1846  0.2255
  409W        W 1099   3.695   1.301   7.591 -0.2961 -0.0250 -0.2568
  410W        W 1100   3.200   0.099   0.872  0.1918  0.0067 -0.0891
  411W        W 1101   1.562   3.943   3.600 -0.1833 -0.2048  0.0046
  412W        W 1102   0.831   1.103   3.354 -0.0476 -0.1285 -0.0741
  413W        W 1103   3.953   1.014  11.387 -0.1057  0.3776  0.1648
  414W        W 1104   0.112   4.298  10.653 -0.2323  0.1084 -0.3081
  415W        W 1105   1.020   4.149   0.077 -0.3094 -0.2307 -0.0239
  416W        W 1106   2.642   3.723   2.023  0.0181  0.1703 -0.0544
  417W        W 1107   1.325   0.611   1.009 -0.0492  0.2387  0.0924
  418W        W 1108   2.823   3.788   0.761  0.1570  0.0057  0.1612
  419W        W 1109   0.456   3.299   0.796  0.2303  0.1746  0.1329
  420W        W 1110   3.149   1.573  10.079 -0.1428 -0.3200  0.1252
  421W        W 1111   1.460   2.100  10.039 -0.0738  0.0014  0.0279
  422W        W 1112   0.828   3.826   8.935 -0.0964 -0.0790  0.1240
  423W        W 1113   3.818   2.813   1.008  0.0403 -0.3591 -0.1213
  424W        W 1114   3.658   4.214   8.573 -0.0701  0.0353 -0.1731
  425W        W 1115   1.998   2.364   8.645  0.2169 -0.0369  0.0523
  426W        W 1116   1.895   3.645  10.724 -0.2860  0.1407 -0.1405
  427W        W 1117   3.126   2.579   1.452  0.3955 -0.0385  0.0510
  428W        W 1118   4.395   3.201   1.577  0.1206 -0.3004  0.0665
  429W        W 1119   3.855   1.544   0.225 -0.0965 -0.1962 -0.3461
  430W        W 1120   1.117   2.250  11.329  0.1095  0.1924  0.3251
  431W        W 1121   4.362   3.669   9.113  0.0033 -0.1055 -0.1821
  432W        W 1122   1.827   3.931   8.884 -0.1748  0.1996 -0.2470
  433W        W 1123   1.774   2.505   2.048 -0.3952  0.0799 -0.0407
  434W        W 1124   0.416   3.645   9.257 -0.4093 -0.3148  0.1332
  435W        W 1125   2.496   3.027   9.587  0.0718 -0.2022 -0.0413
  436W        W 1126   1.101   4.199   0.865 -0.0537 -0.2355 -0.2024
  437W        W 1127   3.215   3.823   2.643 -0.1700  0.0893 -0.1881
  438W        W 1128   0.127   0.021   0.475  0.0776  0.1855 -0.0235
  439W        W 1129   3.204   2.147   9.030  0.3570 -0.2951  0.0476
  440W        W 1130   1.350   3.231   2.238 -0.0706 -0.0035 -0.3645
  441W        W 1131   0.526   0.685   9.329  0.2080 -0.3997 -0.5915
  442W        W 1132   1.816   2.509   9.898  0.0079  0.1245  0.0975
  443W        W 1133   4.126   4.316   8.598 -0.1839  0.0820 -0.2207
  444W        W 1134   4.314   2.816   9.356 -0.0360 -0.0349 -0.1094
  445W        W 1135   0.865   0.361   2.483 -0.0374 -0.0805 -0.0468
  446W        W 1136   3.033   3.062   7.759  0.1764 -0.0005  0.0785
  447W        W 1137   2.328   2.772   8.517  0.3567 -0.2463  0.2319
  448W        W 1138   4.419   3.553   8.422 -0.0859 -0.0073  0.2597
  449W        W 1139   0.783   2.654   1.800  0.0283 -0.1628 -0.0977
  450W        W 1140   2.012   2.818   9.582  0.0992 -0.1306 -0.0139
  451W        W 1141   1.940   0.625   2.273  0.2580  0.3287 -0.1027
  452W        W 1142   2.792   3.469   9.064  0.0541  0.0287  0.0623
  453W        W 1143   1.302   1.877   8.992  0.4105  0.2019  0.2545
  454W        W 1144   4.123   0.992  10.505  0.2781 -0.3411  0.1795
  455W        W 1145   1.276   2.363   8.161 -0.1621 -0.1546 -0.0955
  456W        W 1146   4.291   0.663   0.005  0.0778  0.1724 -0.1758
  457W        W 1147   1.597   1.627   1.379  0.0510 -0.0565 -0.2663
  458W        W 1148   1.509   1.425   0.859 -0.0118  0.1820 -0.1274
  459W        W 1149   0.388   1.954   0.201  0.0050  0.0588  0.0447
  460W        W 1150   3.853   2.924   9.169  0.3564  0.0295 -0.0728
  461W        W 1151   3.486   0.796   0.579 -0.4585  0.0386 -0.0048
  462W        W 1152   0.298   0.505  10.697  0.0869 -0.0114 -0.0460
  463W        W 1153   1.569   1.406   3.029  0.1452 -0.1524  0.2843
  464W        W 1154   0.888   3.374   0.519 -0.1477  0.1473  0.1237
  465W        W 1155   1.669   0.932   0.816 -0.1751  0.3383  0.2400
  466W        W 1156   3.051   4.161   8.960  0.0682  0.0106 -0.0219
  467W        W 1157   2.731   4.088   1.636 -0.4083 -0.0134 -0.0673
  468W        W 1158   1.499   3.444   0.435  0.1140 -0.1563  0.2291
  469W        W 1159   3.387   1.038   8.929  0.3034 -0.2858  0.0869
  470W        W 1160   3.276   2.495   1.958 -0.1639 -0.1782 -0.0361
  471W        W 1161   1.608   1.999   8.008  0.0872 -0.3021 -0.1146
  472W        W 1162   0.488   2.160   8.324 -0.3072  0.2299 -0.2295
  473W        W 1163   4.387   3.720   1.636  0.0021 -0.0278 -0.0717
  474W        W 1164   2.930   0.972   8.692 -0.2394  0.0269  0.1496
  475W        W 1165   0.595   1.685   1.031 -0.1508 -0.0203  0.0481
  476W        W 1166   2.008   2.678   9.111  0.0029 -0.1328 -0.0475
  477W        W 1167   1.742   0.035  11.157 -0.0136 -0.1114  0.0293
  478W        W 1168   2.886   3.569   3.205 -0.0193 -0.0629 -0.3291
  479W        W 1169   3.351   2.221   9.510  0.2403  0.0450 -0.0631
  480W        W 1170   3.300   1.098   3.095 -0.1254  0.0295  0.1895
  481W        W 1171   3.505   3.738   1.146  0.0974 -0.0750 -0.0372
  482W        W 1172   1.896   4.472   2.470  0.0314 -0.0676 -0.2245
  483W        W 1173   3.344   0.579   8.867  0.1585 -0.0329 -0.3553
  484W        W 1174   3.079   0.055  11.120 -0.0075  0.0050 -0.1156
  485W        W 1175   3.448   2.633   8.776  0.1550  0.1930 -0.0019
  486W        W 1176   2.323   0.705   9.194  0.0098 -0.2142  0.3707
  487W        W 1177   3.740   2.842  10.107  0.5077  0.0041 -0.0611
  488W        W 1178   0.914   1.951   0.158  0.0016 -0.1469 -0.2933
  489W        W 1179   2.411   3.048   3.394 -0.3898  0.1580  0.1267
  490W        W 1180   3.381   0.889   7.859 -0.3890 -0.0535 -0.1529
  491W        W 1181   4.306   1.870  10.934  0.2507 -0.0956  0.2783
  492W        W 1182   3.232   0.524   0.241  0.0102  0.2412  0.3543
  493W        W 1183   2.301   0.026   8.165  0.2911  0.2741  0.2323
  494W        W 1184   3.618   4.300   1.088  0.0300 -0.1349 -0.2507
  495W        W 1185   2.006   1.979   1.023  0.0970 -0.0934 -0.1823
  496W        W 1186   1.970   1.284   9.066 -0.0442 -0.0042  0.0374
  497W        W 1187   2.458   3.867   3.138  0.0469 -0.0781  0.0880
  498W        W 1188   2.433   3.630   8.291 -0.1250  0.2288 -0.0092
  499W        W 1189   3.143   4.167   9.440 -0.1809 -0.0395  0.0722
  500W        W 1190   0.313   1.343   3.776  0.2931  0.1247  0.2491
  501W        W 1191   0.261   1.603  11.441  0.0616  0.1229 -0.4027
  502W        W 1192   0.408   2.321   2.460 -0.2606  0.0446  0.2499
  503W        W 1193   1.984   0.251  10.764 -0.2419  0.0037  0.0343
  504W        W 1194   1.572   1.100   0.293  0.0465 -0.0006 -0.0272
  505W        W 1195   1.509   4.281   0.054  0.1390 -0.0786  0.0191
  506W        W 1196   0.913   2.043   8.019  0.1010  0.3062 -0.3784
  507W        W 1197   0.997   1.150   0.362  0.1921  0.0173 -0.2873
  508W        W 1198   4.226   0.862   9.185 -0.0388  0.0381  0.3414
  509W        W 1199   0.292   1.291   1.830  0.1153 -0.2568  0.0095
  510W        W 1200   1.152   1.715   0.627 -0.1638 -0.1237  0.0290
  511W        W 1201   2.582   2.679   2.516  0.1194 -0.0756  0.0750
  512W        W 1202   2.884   3.460   9.571 -0.3107 -0.0729  0.0912
  513W        W 1203   1.584   4.274   2.894 -0.0376 -0.2120  0.2203
  514W        W 1204   0.247   2.537   9.252 -0.1843 -0.3940  0.1163
  515W        W 1205   3.455   1.539   3.202 -0.2182  0.0975 -0.0404
  516W        W 1206   0.362   1.977   9.335  0.0834  0.1720  0.0725
  517W        W 1207   0.366   2.660   8.465  0.1142  0.1057 -0.0626
  518W        W 1208   3.741   1.011   9.249 -0.1605 -0.0507  0.0612
  519W        W 1209   1.934   2.889  10.268 -0.2453  0.1993  0.0013
  520W        W 1210   1.215   3.709   0.903 -0.2305 -0.1737 -0.4406
  521W        W 1211   3.680   0.278   3.627  0.0505 -0.0016 -0.0272
  522W        W 1212   4.448   2.245   0.080 -0.1229  0.0754  0.1602
  523W        W 1213   1.084   2.517   1.372 -0.0080 -0.0713  0.1745
  524W        W 1214   2.866   0.525   8.935 -0.2071 -0.2787 -0.2277
  525W        W 1215   3.406   2.356  10.828  0.4262 -0.0174 -0.1316
  526W        W 1216   0.830   4.234   2.377  0.1044 -0.2487 -0.3908
  527W        W 1217   0.532   0.659   4.229 -0.3959  0.2677  0.0596
  528W        W 1218   0.739   1.467   0.049 -0.0245  0.1675 -0.1135
  529W        W 1219   3.175   0.690   9.899 -0.0358  0.3730 -0.1899
  530W        W 1220   2.893   1.777  11.323  0.1454 -0.1506  0.0930
  531W        W 1221   3.576   1.613   3.677 -0.1166 -0.0621  0.0077
  532W        W 1222   2.586   1.419   7.933 -0.0702  0.1547  0.0189
  533W        W 1223   0.155   2.874  10.632  0.1662  0.2440  0.0774
  534W        W 1224   0.026   1.031   1.442  0.2475 -0.4200 -0.0280
  535W        W 1225   3.638   2.369  10.327  0.0537  0.0194 -0.0840
  536W        W 1226   2.458   1.183   8.876  0.1902 -0.2602 -0.1303
  537W        W 1227   0.534   4.083   3.138  0.1034  0.0491  0.2026
  538W        W 1228   1.966   2.704  10.948 -0.0822 -0.0110 -0.1274
  539W        W 1229   1.078   0.280  10.548  0.0929  0.1475  0.2584
  540W        W 1230   1.553   2.714   9.505  0.0164  0.1602  0.1060
  541W        W 1231   1.693   2.276   9.016  0.2012 -0.0667 -0.3574
  542W        W 1232   0.342   3.017   3.134 -0.1295  0.0330  0.1074
  543W        W 1233   1.882   4.019   9.743  0.2229 -0.0383  0.0853
  544W        W 1234   0.290   0.303   3.038 -0.0113  0.0466 -0.1104
  545W        W 1235   3.634   2.223   2.147  0.0787  0.1989  0.1975
  546W        W 1236   4.467   1.122  10.108 -0.1220  0.2753  0.0834
  547W        W 1237   4.341   3.080   9.796 -0.3142  0.0977  0.3305
  548W        W 1238   3.406   3.657   8.779 -0.0745 -0.2345  0.0411
  549W        W 1239   0.310   3.595   1.425 -0.1929  0.0475 -0.1307
  550W        W 1240   0.218   2.628   0.316 -0.1267 -0.0208  0.1383
  551W        W 1241   2.188   4.428   1.814 -0.0612 -0.0397  0.2272
  552W        W 1242   3.081   1.624   3.502 -0.1608 -0.1192 -0.0520
  553W        W 1243   1.333   3.385   2.695  0.3722 -0.2393 -0.0745
  554W        W 1244   1.344   0.930   3.386 -0.2482  0.0386 -0.0939
  555W        W 1245   2.376   1.526   0.490 -0.1211  0.0047 -0.1109
  556W        W 1246   0.111   1.123  11.498 -0.2686  0.1338  0.0818
  557W        W 1247   0.196   1.026   2.736  0.1040  0.0217  0.1444
  558W        W 1248   3.783   0.741   8.749 -0.2104 -0.0721  0.0275
  559W        W 1249   0.432   3.185   0.323  0.2323  0.1972  0.0934
  560W        W 1250   1.515   1.279   2.455  0.0596  0.0695 -0.0241
  561W        W 1251   0.690   0.285   0.505  0.1476  0.2702 -0.3517
  562W        W 1252   1.634   1.891  11.526  0.1436  0.0373  0.0070
  563W        W 1253   0.603   3.720  10.050  0.0048 -0.1710  0.1029
  564W        W 1254   0.841   3.861   0.565  0.0779 -0.2954  0.2944
  565W        W 1255   1.424   4.391   3.722 -0.2952  0.1522  0.0466
  566W        W 1256   0.776   1.260   1.986 -0.1131 -0.0838  0.1577
  567W        W 1257   2.574   3.478  11.546  0.0928 -0.0255  0.1428
  568W        W 1258   2.408   0.508  10.518 -0.1924 -0.1259 -0.1969
  569W        W 1259   1.440   1.031   4.447  0.0448  0.1551 -0.1653
  570W        W 1260   0.301   3.714   8.814  0.0715 -0.0936 -0.1438
  571W        W 1261   0.732   0.279   8.520 -0.1788 -0.2125 -0.2406
  572W        W 1262   3.669   2.267   0.240  0.1412 -0.0061  0.2260
  573W        W 1263   1.875   1.366  10.781  0.3006 -0.2226  0.0913
  574W        W 1264   3.736   3.718   0.536 -0.4650  0.1318  0.2122
  575W        W 1265   1.415   0.481  10.922  0.0637  0.1156 -0.2423
  576W        W 1266   0.262   2.747   0.833 -0.2482 -0.2181  0.0420
  577W        W 1267   2.481   2.121  10.536 -0.1958  0.3101 -0.1867
  578W        W 1268   1.067   2.797   3.320 -0.2381  0.3615  0.0144
  579W        W 1269   3.486   1.636  10.504  0.3606 -0.1315  0.4183
  580W        W 1270   0.657   3.887   1.561 -0.0949  0.2016  0.0242
  581W        W 1271   1.885   4.207   3.919 -0.2134  0.2270 -0.1230
  582W        W 1272   3.699   3.275   0.826  0.0983  0.0500  0.0222
  583W        W 1273   0.181   2.252   0.618  0.1428 -0.0131  0.0569
  584W        W 1274   1.925   1.867  10.755 -0.2306  0.0390  0.0639
  585W        W 1275   0.136   3.353  10.676  0.0940  0.0465  0.0278
  586W        W 1276   2.974   4.272   9.999 -0.3958 -0.0261  0.0566
  587W        W 1277   2.475   4.220   1.020 -0.1656  0.1284  0.2066
  588W        W 1278   2.082   3.209   8.693 -0.1223 -0.0257  0.1778
  589W        W 1279   0.776   2.870   0.618  0.1840 -0.0331 -0.1546
  590W        W 1280   0.752   3.306   9.518  0.1232  0.4092 -0.0582
  591W        W 1281   0.999   0.676   8.181 -0.0381 -0.1232  0.0890
  592W        W 1282   4.247   2.004   1.095 -0.1087  0.1806  0.2332
  593W        W 1283   4.232   4.357   0.193 -0.1846  0.1540 -0.2290
  594W        W 1284   2.813   2.217   7.406 -0.3869 -0.0752  0.4963
  595W        W 1285   1.031   4.040   1.956 -0.2559 -0.1029 -0.1251
  596W        W 1286   0.557   1.748   2.039 -0.2230 -0.0513  0.0059
  597W        W 1287   3.987   1.695   0.708 -0.0472  0.1367  0.0268
  598W        W 1288   2.352   2.857   1.632 -0.1534  0.1860 -0.3048
  599W        W 1289   1.405   3.785   3.060  0.3411 -0.1289 -0.0058
  600W        W 1290   2.674   2.525  11.045  0.1557  0.2377  0.0125
  601W        W 1291   4.392   0.251  10.988 -0.0948 -0.1936 -0.3688
  602W        W 1292   1.561   3.204   8.525  0.3560 -0.0039  0.1707
  603W        W 1293   2.465   1.469  11.371  0.2219  0.0873  0.1228
  604W        W 1294   4.399   0.919   3.741 -0.2466  0.1437  0.2702
  605W        W 1295   2.303   0.479   1.913 -0.0378 -0.0987  0.2539
  606W        W 1296   0.844   3.024   2.843  0.1177  0.0727  0.3508
  607W        W 1297   4.022   4.128   9.191  0.0150 -0.1848  0.4273
  608W        W 1298   2.712   3.600   4.474  0.1967 -0.1186  0.0055
  609W        W 1299   3.039   1.653   8.088 -0.1361  0.3466 -0.0183
  610W        W 1300   2.906   3.794   1.267  0.0801  0.0975  0.0168
  611W        W 1301   0.165   0.993   4.187 -0.1330 -0.0062  0.2974
  612W        W 1302   0.699   1.725   9.673  0.0868  0.2425  0.0885
  613W        W 1303   3.067   2.584   0.762 -0.2385  0.0006  0.0282
  614W        W 1304   3.593   1.104  10.509  0.2442 -0.2390 -0.2316
  615W        W 1305   1.243   1.478   3.389 -0.1783  0.0257 -0.1085
  616W        W 1306   1.973   1.814   9.394 -0.1723 -0.4322  0.1570
  617W        W 1307   2.414   3.140   8.179 -0.1301  0.0265  0.1053
  618W        W 1308   2.422   2.451   8.901 -0.0210  0.2242  0.0493
  619W        W 1309   1.628   3.203   9.413 -0.0887  0.0768  0.1240
  620W        W 1310   3.915   3.042   2.602 -0.1539 -0.2170 -0.0027
  621W        W 1311   1.513   1.604   1.985  0.3109 -0.0676 -0.3168
  622W        W 1312   1.949   2.983   7.969 -0.0535  0.0149  0.0154
  623W        W 1313   3.136   4.146   3.508  0.0607 -0.2624  0.3052
  624W        W 1314   0.412   3.171   1.744 -0.1759 -0.0810  0.2239
  625W        W 1315   3.702   0.528   9.187  0.1012 -0.1479 -0.1187
  626W        W 1316   4.463   4.131   8.960  0.1133 -0.0330 -0.3533
  627W        W 1317   2.723   0.102  10.492  0.1208  0.0831  0.1033
  628W        W 1318   3.775   3.341   8.348  0.1304  0.2771 -0.2018
  629W        W 1319   3.880   2.538   2.756  0.0838 -0.1687 -0.2278
  630W        W 1320   3.041   1.175   1.601  0.0501  0.1542  0.2154
  631W        W 1321   0.833   0.112   3.086  0.4056 -0.0447 -0.1089
  632W        W 1322   0.806   0.418   3.895 -0.0198 -0.0204 -0.1324
  633W        W 1323   0.830   2.077   8.991  0.1275  0.3374  0.1415
  634W        W 1324   4.219   0.242   3.043  0.0525  0.1387  0.0735
  635W        W 1325   3.740   3.496   2.344  0.1925 -0.0741  0.1442
  636W        W 1326   1.188   1.719   1.101  0.0442 -0.0657  0.2844
  637W        W 1327   1.363   3.214   3.240 -0.2958 -0.4279  0.2495
  638W        W 1328   4.237   3.935   0.468  0.2578  0.0347  0.2244
  639W        W 1329   3.757   0.311   2.589 -0.1942  0.0155 -0.0798
  640W        W 1330   2.688   2.728  10.221 -0.0543  0.1794 -0.1150
  641W        W 1331   0.117   2.591   9.729  0.1692  0.2020 -0.0603
  642W        W 1332   0.195   3.906   7.596 -0.1093 -0.0427 -0.1656
  643W        W 1333   3.368   3.634  11.155 -0.0123 -0.0042  0.0692
  644W        W 1334   3.339   1.660   1.512  0.0601 -0.1563 -0.0302
  645W        W 1335   2.491   0.491   4.067  0.0361 -0.1516  0.0567
  646W        W 1336   2.539   2.949   8.920 -0.0061 -0.2922  0.1118
  647W        W 1337   1.680   3.491   3.560  0.0029  0.1490 -0.0992
  648W        W 1338   1.456   0.306   2.490 -0.2615  0.2984 -0.1064
  649W        W 1339   1.496   0.465   8.770  0.0868 -0.0440 -0.0085
  650W        W 1340   1.216   2.001   1.699  0.4275  0.3713  0.0277
  651W        W 1341   2.069   4.270  11.521  0.0952  0.0280  0.1116
  652W        W 1342   1.718   2.185  11.053  0.0989 -0.5386  0.1118
  653W        W 1343   0.918   1.002   9.119 -0.0456  0.0271 -0.1062
  654W        W 1344   3.818   2.293   0.767 -0.0268 -0.1807 -0.2298
  655W        W 1345   0.475   4.145   9.150 -0.1763  0.1519  0.1958
  656W        W 1346   0.528   3.891   2.593  0.0098 -0.0810  0.2173
  657W        W 1347   1.551   0.928  10.183 -0.1414  0.0524 -0.2343
  658W        W 1348   1.301   4.071  11.167  0.2394 -0.1873  0.0444
  659W        W 1349   2.958   0.092   9.191 -0.0796  0.0374  0.2888
  660W        W 1350   0.567   3.584  10.598 -0.3265 -0.3963 -0.0533
  661W        W 1351   2.003   3.422  10.234 -0.2918 -0.0868 -0.1647
  662W        W 1352   4.270   1.577  10.209 -0.2269  0.1458 -0.0920
  663W        W 1353   3.111   1.608   2.413  0.1339 -0.0534  0.2187
  664W        W 1354   3.147   2.922   0.060 -0.0717  0.0761 -0.0117
  665W        W 1355   4.473   3.752   1.015 -0.1101 -0.0934  0.0056
  666W        W 1356   1.617   2.956   0.673  0.3497  0.0278 -0.0034
  667W        W 1357   0.965   0.551   3.325  0.0077  0.2420 -0.2774
  668W        W 1358   1.449   3.936   1.765  0.0611 -0.1411 -0.0587
  669W        W 1359   3.559   1.850   8.215 -0.0447 -0.2608 -0.0602
  670W        W 1360   3.598   3.422   2.962  0.0643  0.3066  0.0716
  671W        W 1361   1.289   1.267  10.543 -0.0598  0.0476 -0.0409
  672W        W 1362   0.495   3.377  11.018  0.0026 -0.2162  0.1889
  673W        W 1363   1.272   0.354   3.897 -0.0164 -0.1200  0.3386
  674W        W 1364   3.109   1.286  10.511  0.0557  0.3789 -0.1003
  675W        W 1365   2.812   0.050   8.697  0.0903 -0.0902  0.1061
  676W        W 1366   2.530   0.858   3.486  0.1421  0.1043 -0.1626
  677W        W 1367   1.704   0.243   2.065  0.1973  0.1116 -0.2218
  678W        W 1368   3.818   4.011   1.454  0.1238  0.4009 -0.0282
  679W        W 1369   2.582   2.781   3.778  0.0612  0.0511 -0.2087
  680W        W 1370   0.365   0.974  10.945  0.2723  0.0199 -0.1603
  681W        W 1371   0.651   2.170   1.754  0.0573 -0.0068 -0.0793
  682W        W 1372   2.110   3.501  11.317  0.1700  0.0262 -0.1691
  683W        W 1373   2.967   2.479  10.586 -0.2193 -0.2146  0.1384
  684W        W 1374   2.165   0.273  11.298  0.1106  0.0479  0.0030
  685W        W 1375   2.196   3.285   1.849  0.1012  0.1088  0.2323
  686W        W 1376   3.553   4.258   1.919  0.0090 -0.1730 -0.2579
  687W        W 1377   2.369   1.155   0.848  0.0644 -0.2058 -0.3117
  688W        W 1378   0.936   2.575  10.220 -0.0552  0.2168  0.0940
  689W        W 1379   2.947   3.250   3.665  0.4378 -0.0938  0.0325
  690W        W 1380   1.516   1.644  11.002  0.1715 -0.1442  0.0030
  691W        W 1381   0.276   0.558  11.265  0.1057 -0.3884  0.1386
  692W        W 1382   2.845   0.834   1.245  0.0480  0.3470 -0.0774
  693W        W 1383   3.791   4.010  10.643  0.3392  0.0409 -0.0062
  694W        W 1384   2.299   2.012   0.568  0.1699 -0.2134 -0.1178
  695W        W 1385   3.290   0.624   1.049 -0.1725  0.0394 -0.0222
  696W        W 1386   1.316   3.744   2.232  0.0230  0.2196 -0.0217
  697W        W 1387   0.976   1.727   3.026 -0.2582  0.1619 -0.3616
  698W        W 1388   2.358   4.044   3.979 -0.0870 -0.1662 -0.0703
  699W        W 1389   1.554   2.102   1.275  0.0666 -0.2708  0.2403
  700W        W 1390   4.069   3.035  11.364  0.1718  0.2990 -0.0618
  701W        W 1391   4.465   1.150   8.196 -0.2004  0.0647  0.0532
  702W        W 1392   3.140   0.152   3.470  0.1327 -0.1085  0.0995
  703W        W 1393   3.623   4.162   0.546 -0.1672 -0.0448 -0.0453
  704W        W 1394   2.622   4.252   7.815  0.1919 -0.2985  0.0215
  705W        W 1395   3.071   2.441   8.513 -0.0955  0.1475 -0.1096
  706W        W 1396   1.797   2.270   2.830  0.0119 -0.2567  0.1670
  707W        W 1397   3.904   0.618   1.707 -0.1892  0.0831 -0.0048
  708W        W 1398   2.822   1.841   7.699  0.1100  0.1006  0.0168
  709W        W 1399   3.039   1.098   7.259 -0.1784 -0.1066 -0.1506
  710W        W 1400   4.289   1.338   9.233 -0.0407 -0.1944 -0.1317
  711W        W 1401   1.213   0.390   2.064  0.2592 -0.1767 -0.0729
  712W        W 1402   0.908   1.318   8.550 -0.0821  0.1021 -0.0802
  713W        W 1403   3.180   1.913   3.936  0.0963  0.0359 -0.2053
  714W        W 1404   2.616   0.401   9.463 -0.2753  0.1538 -0.2632
  715W        W 1405   1.816   4.145   2.095  0.0562 -0.3352  0.2401
  716W        W 1406   1.266   1.512   0.195 -0.0633  0.2349 -0.2045
  717W        W 1407   2.458   0.915   7.820  0.3024  0.0040 -0.0409
  718W        W 1408   2.317   0.823  11.433 -0.0866  0.0715  0.0325
  719W        W 1409   1.786   4.405   3.363  0.2861  0.0951  0.0016
  720W        W 1410   4.455   3.107   2.465 -0.1543  0.0122  0.0663
  721W        W 1411   1.151   3.637   3.477  0.0720  0.0160 -0.1132
  722W        W 1412   0.322   0.153  10.282 -0.0077  0.1412 -0.0796
  723W        W 1413   1.793   1.275   3.485  0.0475  0.0396 -0.2738
  724W        W 1414   4.416   3.309   2.941 -0.0774 -0.4147  0.0188
  725W        W 1415   2.169   0.021   3.010 -0.0694 -0.0165  0.1585
  726W        W 1416   0.696   2.453   0.908  0.1763  0.3499 -0.0452
  727W        W 1417   1.426   3.571  11.164 -0.1009  0.1321 -0.0588
  728W        W 1418   0.867   4.053  10.749  0.1491  0.1815 -0.2219
  729W        W 1419   3.263   4.035   0.864 -0.3478  0.1493  0.1630
  730W        W 1420   3.938   0.053   1.728  0.0411 -0.0457 -0.3100
  731W        W 1421   3.933   1.132   8.357 -0.1860 -0.1139 -0.3505
  732W        W 1422   2.774   0.715   0.124  0.0056  0.0977  0.0385
  733W        W 1423   3.606   4.465  10.970 -0.2819  0.2962 -0.3021
  734W        W 1424   2.890   3.361   0.374 -0.2800  0.1257 -0.1532
  735W        W 1425   1.875   4.100   0.330  0.1200  0.0116  0.0459
  736W        W 1426   3.769   3.536   9.171  0.0296 -0.3365  0.1031
  737W        W 1427   1.367   3.624   7.624 -0.0977  0.2438  0.2970
  738W        W 1428   2.585   2.206   9.688 -0.0509  0.3365 -0.2327
  739W        W 1429   2.786   4.049  10.456  0.0817  0.0441  0.1459
  740W        W 1430   2.032   3.434   0.795  0.1289 -0.1384  0.1655
  741W        W 1431   3.229   2.067  10.418 -0.0563 -0.1359  0.0858
  742W        W 1432   0.511   3.918   2.077 -0.0520 -0.0206  0.1781
  743W        W 1433   2.928   3.190  11.291  0.2015 -0.2982  0.1407
  744W        W 1434   4.456   1.278   2.225  0.0232  0.2756 -0.2736
  745W        W 1435   2.241   3.262   2.474 -0.2125 -0.0245  0.2724
  746W        W 1436   0.691   4.342   1.366 -0.0914  0.1461 -0.0621
  747W        W 1437   4.151   1.808   8.836 -0.0396  0.1500 -0.2225
  748W        W 1438   4.110   1.925  11.476 -0.3536 -0.0283  0.0851
  749W        W 1439   0.626   0.086  10.624 -0.1727  0.0971 -0.0425
  750W        W 1440   0.853   3.809   9.460 -0.0981  0.0093  0.0317
  751W        W 1441   1.186   0.458   2.900 -0.2819  0.0584  0.0040
  752W        W 1442   0.680   1.818  11.286 -0.0088  0.0054  0.0914
  753W        W 1443   0.208   0.567   8.528 -0.3010  0.1249  0.0798
  754W        W 1444   2.599   0.386   3.602 -0.0302  0.0288 -0.0354
  755W        W 1445   4.037   4.353   0.672 -0.0369 -0.0968 -0.2026
  756W        W 1446   0.937   2.350   4.127  0.1375 -0.5013  0.1841
  757W        W 1447   0.056   3.584   2.520  0.0009 -0.4657 -0.1044
  758W        W 1448   0.629   0.906  11.407 -0.0987 -0.2528 -0.0516
  759W        W 1449   1.584   0.757   2.707 -0.0831 -0.0370 -0.0154
  760W        W 1450   3.742   2.353   9.252  0.0184 -0.0921 -0.1393
  761W        W 1451   1.636   0.137  10.431  0.2663  0.1347  0.0763
  762W        W 1452   3.334   2.085   0.632 -0.3259  0.1536 -0.2546
  763W        W 1453   4.093   4.393   3.445  0.2589 -0.2972 -0.2274
  764W        W 1454   2.493   2.053  11.396 -0.0274 -0.3351  0.0149
  765W        W 1455   1.623   3.796  10.338  0.2706  0.2918 -0.4581
  766W        W 1456   2.190   0.578   9.718  0.1258  0.2717 -0.1174
  767W        W 1457   3.837   3.013   2.107  0.2036 -0.0624 -0.1088
  768W        W 1458   2.881   3.150   9.958  0.0198 -0.4112  0.2017
  769W        W 1459   0.043   3.111  11.155  0.1202 -0.1991  0.0753
  770W        W 1460   1.743   1.727   8.906 -0.4300  0.2087 -0.1514
  771W        W 1461   1.233   2.645   0.023  0.2817  0.0649 -0.0310
  772W        W 1462   3.893   1.407   1.206  0.1903 -0.0773 -0.0596
  773W        W 1463   0.282   3.978   0.594 -0.0233  0.0533 -0.1038
  774W        W 1464   4.028   2.678   3.273 -0.0210 -0.0976 -0.0291
  775W        W 1465   2.773   2.732   8.210 -0.0090 -0.1409 -0.0336
  776W        W 1466   2.440   2.622   9.367 -0.2430 -0.3338 -0.2987
  777W        W 1467   0.230   1.001   9.162 -0.1991 -0.3957 -0.1693
  778W        W 1468   0.198   4.222  10.036  0.1546  0.0588 -0.0382
  779W        W 1469   0.447   2.706   2.173  0.0394  0.0953  0.0804
  780W        W 1470   0.875   0.797   1.207 -0.2811 -0.2369  0.0093
  781W        W 1471   2.547   2.210   1.022  0.0213 -0.0017 -0.2378
  782W        W 1472   2.954   0.051   8.216 -0.0726  0.0440 -0.2432
  783W        W 1473   3.181   1.644   0.941 -0.0130 -0.2807 -0.0397
  784W        W 1474   4.077   1.237   0.679  0.1657  0.0247 -0.4281
  785W        W 1475   0.632   1.390   0.615 -0.3940  0.0080 -0.1605
  786W        W 1476   0.588   3.721   0.141 -0.1047  0.0196 -0.0027
  787W        W 1477   0.811   2.055  10.521  0.1617 -0.2528  0.1586
  788W        W 1478   1.619   0.526   0.527 -0.1331 -0.1336 -0.0649
  789W        W 1479   1.330   3.330  10.138 -0.1312 -0.1962  0.1664
  790W        W 1480   3.441   1.263   2.167  0.1303 -0.1063 -0.0099
  791W        W 1481   1.676   4.447   1.576  0.0619  0.1601 -0.3097
  792W        W 1482   0.926   2.990   2.131  0.1022 -0.2184  0.1897
  793W        W 1483   2.532   4.188   2.114 -0.1023 -0.0272  0.0668
  794W        W 1484   0.134   4.039   8.490  0.2889  0.0625  0.1703
  795W        W 1485   3.424   0.903   8.392 -0.1462  0.2708 -0.0831
  796W        W 1486   1.384   3.425   1.771 -0.2334  0.0975 -0.3483
  797W        W 1487   2.148   0.358   3.357  0.0735  0.1656 -0.1241
  798W        W 1488   4.256   3.123   8.172  0.1768  0.1088 -0.1662
  799W        W 1489   1.494   3.695   9.349  0.2213 -0.2840 -0.0629
  800W        W 1490   0.749   3.985   8.127 -0.0008  0.3816  0.0736
  801W        W 1491   3.649   0.751   2.251 -0.2903  0.2854  0.1017
  802W        W 1492   2.825   1.330   9.538  0.3492 -0.0187  0.1580
  803W        W 1493   0.217   3.436   3.369 -0.1607 -0.2677  0.1762
  804W        W 1494   3.377   3.640  10.555 -0.0735 -0.1278 -0.0539
  805W        W 1495   3.296   0.492   3.109 -0.0403 -0.1056  0.0042
  806W        W 1496   0.961   1.310   2.489 -0.0878 -0.0711  0.2176
  807W        W 1497   1.624   3.798   0.029  0.0175 -0.0230 -0.1684
  808W        W 1498   1.971   2.001   1.720  0.1043 -0.0300  0.0929
  809W        W 1499   0.830   2.712  11.255 -0.0189  0.1314  0.0438
  810W        W 1500   2.107   0.190  10.095 -0.0116  0.0760 -0.0866
  811W        W 1501   3.493   0.697  11.434  0.2997 -0.2002  0.3250
  812W        W 1502   0.000   2.729   8.852  0.0939 -0.1140 -0.4843
  813W        W 1503   1.172   4.257   1.448  0.2523  0.3878 -0.0492
  814W        W 1504   1.604   0.785  11.325  0.1400 -0.0917 -0.3219
  815W        W 1505   3.798   4.195   0.099 -0.0605  0.0544 -0.1077
  816W        W 1506   0.205   3.163   8.659 -0.4022  0.2427  0.1014
  817W        W 1507   4.006   2.789   8.705 -0.0535 -0.4281  0.2721
  818W        W 1508   3.298   4.010  10.873  0.0794 -0.4644  0.2273
  819W        W 1509   4.228   2.307   3.555  0.3057  0.1535  0.1554
  820W        W 1510   2.910   2.708   4.313 -0.2441  0.3257  0.2466
  821W        W 1511   2.432   1.709  10.882 -0.3412 -0.0231 -0.0485
  822W        W 1512   0.105   2.328  10.772  0.0264 -0.1829 -0.3872
  823W        W 1513   2.188   4.077   9.368 -0.1370  0.0940 -0.1023
  824W        W 1514   0.603   3.623   8.447 -0.2262 -0.0140 -0.3417
  825W        W 1515   2.180   4.278  11.007 -0.3541 -0.1816  0.1432
  826W        W 1516   3.555   2.699   2.432 -0.1334 -0.1380 -0.1159
  827W        W 1517   2.085   0.675   1.125 -0.4129  0.1161  0.1733
  828W        W 1518   1.084   0.494   9.068  0.1128 -0.0794 -0.1432
  829W        W 1519   0.061   0.599   3.351 -0.0575  0.2141 -0.0875
  830W        W 1520   0.728   2.563   2.979  0.4649 -0.1765 -0.2491
  831W        W 1521   2.837   2.387   2.952 -0.2358  0.0698  0.3185
  832W        W 1522   3.989   3.009   0.480  0.1625 -0.1718  0.0258
  833W        W 1523   1.612   1.880   0.761 -0.3977 -0.2175 -0.1433
  834W        W 1524   0.001   1.599   3.305  0.2190  0.2742  0.0127
  835W        W 1525   2.415   3.932  11.285  0.0350 -0.0668 -0.0489
  836W        W 1526   2.440   0.256   8.978  0.0243 -0.1413  0.2111
  837W        W 1527   1.662   3.000   8.968 -0.1408  0.0353 -0.0428
  838W        W 1528   1.641   3.435   1.103  0.2540 -0.3267 -0.2139
  839W        W 1529   2.176   3.888   2.313 -0.0015  0.0808 -0.0404
  840W        W 1530   2.603   1.658   2.348  0.0968  0.3460  0.0261
  841W        W 1531   3.655   0.994  11.005  0.2325 -0.0464 -0.0623
  842W        W 1532   0.150   1.190   9.621 -0.2925 -0.0283  0.1645
  843W        W 1533   3.306   4.039  10.284 -0.3101  0.0327 -0.2586
  844W        W 1534   3.585   2.681   0.566 -0.0731  0.1520  0.2223
  845W        W 1535   2.796   4.254   0.578 -0.0543 -0.2790 -0.4610
  846W        W 1536   1.352   3.857  10.732 -0.1093  0.0825  0.0594
  847W        W 1537   1.021   2.549  10.777 -0.2829 -0.0774 -0.0619
  848W        W 1538   0.812   2.366   0.421 -0.0752  0.1643  0.2026
  849W        W 1539   4.014   3.836   8.227 -0.1546  0.1928 -0.0710
  850W        W 1540   0.977   1.506   9.233  0.3978  0.4049 -0.3707
  851W        W 1541   1.205   0.111   9.805  0.3114  0.0312  0.1197
  852W        W 1542   3.670   1.552   2.556  0.1964  0.0415  0.0406
  853W        W 1543   3.226   3.819   9.820  0.3759 -0.3107 -0.1839
  854W        W 1544   2.632   3.882   0.218 -0.0749  0.2903 -0.1411
  855W        W 1545   1.758   3.196   2.559 -0.0894  0.2470 -0.0267
  856W        W 1546   2.265   4.473   7.555 -0.0522 -0.1192  0.0362
  857W        W 1547   1.821   1.100   1.244 -0.1484  0.0213  0.0711
  858W        W 1548   3.784   2.896   8.137  0.3744  0.0265  0.1444
  859W        W 1549   3.313   2.844   9.712  0.1658  0.3165  0.2372
  860W        W 1550   1.427   1.120  11.014 -0.3277 -0.2642 -0.3912
  861W        W 1551   3.780   1.523   8.577 -0.0334  0.1044  0.1244
  862W        W 1552   0.033   4.137   2.580 -0.0472 -0.0039 -0.0516
  863W        W 1553   1.904   2.999   1.070  0.2467 -0.0627 -0.1990
  864W        W 1554   4.365   2.972   2.015  0.0880 -0.2635 -0.0340
  865W        W 1555   1.922   0.392   1.551  0.1275  0.0591  0.2405
  866W        W 1556   0.788   0.279   1.016  0.2101 -0.0361 -0.0959
  867W        W 1557   4.337   4.224   1.700 -0.1080  0.1141  0.0191
  868W        W 1558   0.218   0.548   8.009  0.1974 -0.0325  0.2307
  869W        W 1559   1.104   0.190   0.173  0.2414 -0.0960 -0.0749
  870W        W 1560   3.972   1.857   1.469  0.2963 -0.3231 -0.1906
  871W        W 1561   3.642   1.909   8.983  0.0598 -0.1170  0.1677
  872W        W 1562   1.965   3.247   0.249 -0.0532  0.1635  0.1182
  873W        W 1563   2.483   4.221   9.000 -0.0216 -0.3880 -0.1225
  874W        W 1564   0.690   0.887   2.572 -0.1919  0.0019 -0.0077
  875W        W 1565   3.723   2.309   3.214 -0.1227  0.0254 -0.0768
  876W        W 1566   1.527   3.421   8.075 -0.0523  0.0125 -0.0366
  877W        W 1567   2.810   1.380   0.691  0.4130 -0.0398 -0.1998
  878W        W 1568   2.886   4.456   2.330 -0.2028  0.1236  0.0484
  879W        W 1569   1.311   0.622   0.103  0.0541 -0.0470  0.0196
  880W        W 1570   3.193   2.941   1.771 -0.1262 -0.0630  0.2290
  881W        W 1571   1.862   3.943   3.171  0.1075 -0.0092  0.5468
  882W        W 1572   2.561   2.488   3.382 -0.1183  0.3897  0.1217
  883W        W 1573   4.201   2.354  10.362  0.0864  0.2450  0.0198
  884W        W 1574   0.554   4.084  11.308 -0.0932 -0.0167 -0.1000
  885W        W 1575   0.819   2.845   3.805  0.4090 -0.0854  0.2953
  886W        W 1576   1.951   3.018   3.568  0.2306  0.1355 -0.0336
  887W        W 1577   0.209   2.374  10.177 -0.0223  0.2485  0.1815
  888W        W 1578   4.044   3.515  11.259  0.2257  0.1843  0.1418
  889W        W 1579   3.446   4.182   8.004 -0.2092 -0.0311 -0.3274
  890W        W 1580   0.918   1.010  10.253  0.1548  0.0155 -0.0301
  891W        W 1581   2.937   3.044   9.340  0.2031 -0.1685  0.1594
  892W        W 1582   1.403   1.048   9.152  0.0028 -0.2535 -0.0802
  893W        W 1583   3.670   0.256  10.503 -0.2623 -0.1026 -0.2195
  894W        W 1584   3.361   2.821   8.384  0.0709 -0.2934 -0.2135
  895W        W 1585   4.214   4.403  10.304 -0.0837  0.1469  0.2747
  896W        W 1586   2.658   3.147   4.198 -0.0201  0.1986  0.0676
  897W        W 1587   2.338   2.690   1.108 -0.0016  0.4481  0.0935
  898W        W 1588   4.093   3.453   9.990  0.0271  0.2616  0.0684
  899W        W 1589   4.232   2.568   0.753  0.0060 -0.0902  0.1181
  900W        W 1590   3.424   4.383   2.462  0.2444 -0.2180 -0.3205
  901W        W 1591   1.710   0.475   9.918 -0.0510  0.3233  0.0030
  902W        W 1592   2.226   0.280   4.510  0.0917  0.1705  0.1501
  903W        W 1593   1.552   3.752   8.439 -0.0705  0.2813 -0.0413
  904W        W 1594   1.525   0.678   8.314 -0.0742 -0.1263  0.1206
  905W        W 1595   2.726   2.531   2.063  0.0916 -0.1184  0.0843
  906W        W 1596   3.290   3.566   0.637 -0.0704 -0.1348  0.1230
  907W        W 1597   1.506   2.069   2.106 -0.3473 -0.2530  0.0816
  908W        W 1598   3.506   2.933   2.951 -0.0444 -0.2025 -0.0773
  909W        W 1599   3.104   0.051   1.793 -0.0527  0.0332  0.0311
  910W        W 1600   3.203   0.565   9.427  0.1106 -0.0650  0.1096
  911W        W 1601   4.055   1.007   2.151  0.1899 -0.0080  0.1420
  912W        W 1602   3.824   0.252   1.324  0.1401 -0.1506 -0.4896
  913W        W 1603   3.616   1.347   0.745  0.0294 -0.1456 -0.0182
  914W        W 1604   2.937   3.849  11.332  0.1017 -0.0077 -0.0082
  915W        W 1605   1.116   2.961  10.496 -0.1277 -0.0011  0.1060
  916W        W 1606   0.183   1.046   8.668 -0.1597 -0.0233  0.2175
  917W        W 1607   2.174   1.306   7.651 -0.4750  0.1313  0.2931
  918W        W 1608   2.810   1.163   3.227 -0.1900  0.1804  0.2236
  919W        W 1609   2.298   4.311  10.494  0.4079 -0.2656  0.0511
  920W        W 1610   0.652   4.165   4.297 -0.0669 -0.2881  0.1548
  921W        W 1611   2.148   1.225   0.070 -0.2079  0.1303 -0.2540
  922W        W 1612   1.054   1.720   2.111  0.2228 -0.4134 -0.1364
  923W        W 1613   2.619   1.740  10.091  0.2553  0.0149 -0.0400
  924W        W 1614   1.346   4.412  10.866 -0.1407 -0.0029  0.3170
  925W        W 1615   2.442   1.353  10.380 -0.1263  0.1273  0.1050
  926W        W 1616   2.302   1.879   2.720  0.2255 -0.5369  0.0573
  927W        W 1617   0.690   0.822   7.806 -0.1767  0.0671 -0.0818
  928W        W 1618   4.345   3.119   3.503 -0.1868 -0.1246  0.0781
  929W        W 1619   0.901   2.163   2.711  0.0307 -0.1089  0.0292
  930W        W 1620   3.684   4.005   2.744  0.1622  0.1208  0.0651
  931W        W 1621   3.976   2.033   2.525 -0.3912  0.1768  0.3547
  932W        W 1622   3.397   2.761   3.408 -0.1328  0.2162  0.0231
  933W        W 1623   4.258   0.387  10.526 -0.0835  0.1283 -0.1964
  934W        W 1624   0.858   4.441  11.051  0.1316 -0.1672  0.0114
  935W        W 1625   2.578   0.258   2.949  0.0775 -0.0832 -0.0186
  936W        W 1626   0.130   1.373  10.554 -0.3006 -0.0094 -0.0130
  937W        W 1627   0.785   2.735   7.470  0.0490  0.3160  0.1370
  938W        W 1628   2.845   4.287  11.539 -0.1821 -0.4344  0.2448
  939W        W 1629   3.434   2.454  11.393 -0.1439  0.3433 -0.1269
  940W        W 1630   3.600   3.210   1.326  0.0927  0.1527  0.0704
  941W        W 1631   2.627   4.367   9.470  0.1655  0.0231  0.1631
  942W        W 1632   3.236   3.682   9.265  0.6085  0.1480  0.4474
  943W        W 1633   3.367   3.198  10.832 -0.0373  0.0088  0.3000
  944W        W 1634   0.238   0.418   0.744 -0.1565  0.1786 -0.1112
  945W        W 1635   2.926   0.780   3.881 -0.0212  0.2338  0.0918
  946W        W 1636   2.338   2.856   0.226  0.0170 -0.3267 -0.0365
  947W        W 1637   1.228   1.093   2.094  0.1173  0.2052 -0.1425
  948W        W 1638   1.677   3.919   7.961  0.0160  0.1044  0.0275
  949W        W 1639   2.734   0.943  10.576  0.3702 -0.2633 -0.0567
  950W        W 1640   2.526   1.456   1.578  0.2837 -0.1018 -0.0541
  951W        W 1641   0.512   0.876   1.688  0.1616  0.2080  0.0359
  952W        W 1642   4.378   2.182   1.556  0.1984 -0.1742  0.2638
  953W        W 1643   3.338   3.263   3.333 -0.0127 -0.3404  0.2037
  954W        W 1644   2.263   2.989   0.688 -0.1933  0.1191 -0.0853
  955W        W 1645   2.271   2.213  10.992  0.1697  0.2741 -0.0335
  956W        W 1646   0.652   1.338  11.162 -0.0712 -0.0912  0.1431
  957W        W 1647   0.034   1.327  11.043 -0.0536  0.0714 -0.1110
  958W        W 1648   4.209   2.319   9.500 -0.3600 -0.0808  0.0239
  959W        W 1649   0.539   1.584   4.153 -0.0340 -0.1436  0.1966
  960W        W 1650   2.773   1.848   1.365 -0.2927 -0.3434 -0.0826
  961W        W 1651   2.217   3.917   0.608  0.1769  0.1094  0.0832
  962W        W 1652   0.236   1.135   3.207  0.0896 -0.0266 -0.0596
  963W        W 1653   3.632   3.745  11.574 -0.0622  0.2788 -0.1395
  964W        W 1654   4.440   4.155   9.510 -0.1801 -0.0714 -0.1519
  965W        W 1655   1.639   3.478   8.910  0.4087  0.1115 -0.4040
  966W        W 1656   1.068   0.529  10.042 -0.2810  0.1521  0.2941
  967W        W 1657   2.962   1.935   9.812 -0.1666  0.0488 -0.2256
  968W        W 1658   3.807   1.808  10.982 -0.3009  0.0602  0.3426
  969W        W 1659   4.332   0.753  10.964 -0.1048 -0.2200  0.0099
  970W        W 1660   1.902   1.386   9.608 -0.2073 -0.0945  0.0354
  971W        W 1661   3.784   0.643   8.254 -0.0583  0.2211  0.1420
  972W        W 1662   1.583   4.122   1.232 -0.0209 -0.0205 -0.1907
  973W        W 1663   4.081   1.829   3.947 -0.0679  0.0909  0.3025
  974W        W 1664   3.509   0.245   2.101 -0.2819  0.0135  0.0612
  975W        W 1665   4.242   3.605   3.316  0.2062 -0.0973 -0.0177
  976W        W 1666   4.228   0.288   8.250  0.2469 -0.1547  0.1971
  977W        W 1667   3.351   1.517   8.960 -0.3717 -0.0897 -0.0238
  978W        W 1668   3.085   3.352   2.768 -0.2117  0.0499 -0.0556
  979W        W 1669   1.096   3.841   2.669  0.1379  0.0988 -0.0402
  980W        W 1670   0.603   1.340   2.913  0.1309  0.0476  0.1281
  981W        W 1671   0.193   0.539   3.871  0.1897  0.1293 -0.3482
  982W        W 1672   2.095   2.624   3.223  0.1311 -0.0513 -0.0008
  983W        W 1673   2.353   1.178   9.424  0.2145  0.2961 -0.1005
  984W        W 1674   2.030   2.065   3.226  0.2898 -0.0144 -0.0899
  985W        W 1675   3.683   2.836   0.017  0.2630 -0.2174 -0.1644
  986W        W 1676   0.175   3.519   2.009  0.2220  0.1846  0.3324
  987W        W 1677   0.358   1.729  10.886 -0.0785 -0.0141  0.0843
  988W        W 1678   2.822   1.720  10.550  0.1006  0.2386  0.0096
  989W        W 1679   4.349   0.791   1.834 -0.0178  0.3498  0.1708
  990W        W 1680   3.768   0.265   0.211 -0.0708 -0.0421  0.1562
  991W        W 1681   3.217   3.685   3.652 -0.1359 -0.2059  0.0637
  992W        W 1682   3.589   4.200   3.500 -0.0659  0.0030  0.1708
  993W        W 1683   0.756   2.155   3.221 -0.0203 -0.3384 -0.0280
  994W        W 1684   1.062   3.402   9.167  0.0969  0.0516  0.0874
  995W        W 1685   3.030   0.120   2.884 -0.0920  0.0921  0.0318
  996W        W 1686   0.773   1.231   8.068 -0.2818 -0.1993  0.1546
  997W        W 1687   3.706   3.863   9.498 -0.0044 -0.1190 -0.2534
  998W        W 1688   1.818   0.986   7.914  0.2196  0.0803 -0.2017
  999W        W 1689   0.794   0.090  10.160 -0.2908 -0.2149 -0.0598
 1000W        W 1690   3.851   4.390   8.173  0.1880 -0.0401  0.0327
 1001W        W 1691   3.720   1.907   2.903  0.2373 -0.1910 -0.4142
 1002W        W 1692   0.516   2.554   3.450 -0.0121 -0.3157 -0.4423
 1003W        W 1693   4.215   3.747   9.600 -0.2394  0.3502  0.1959
 1004W        W 1694   2.442   1.144   2.115  0.2024  0.0422 -0.2301
 1005W        W 1695   3.646   1.636   9.980  0.0305 -0.1789 -0.1407
 1006W        W 1696   3.424   3.147   3.836 -0.2158 -0.0729  0.0355
 1007W        W 1697   2.182   3.810   0.083 -0.0259 -0.1204  0.0184
 1008W        W 1698   0.876   1.650   1.611 -0.0264  0.0911  0.1198
 1009W        W 1699   4.165   1.145   0.240 -0.0132  0.0710  0.1785
 1010W        W 1700   2.463   4.422   0.220 -0.3000 -0.0059  0.2956
 1011W        W 1701   1.332   4.405   1.923 -0.1390 -0.1140 -0.2806
 1012W        W 1702   2.343   3.888  10.769 -0.1565  0.3374 -0.1350
 1013W        W 1703   1.577   0.673   1.428 -0.1432  0.1228  0.1510
 1014W        W 1704   2.937   2.268  11.416 -0.3073  0.0767  0.1957
 1015W        W 1705   0.621   1.366   8.922  0.2322 -0.1565 -0.1674
 1016W        W 1706   0.841   3.209  10.068  0.0912 -0.1831  0.1404
 1017W        W 1707   0.645   0.535  10.321 -0.1632 -0.1329  0.3050
 1018W        W 1708   2.876   0.473   1.592  0.2864 -0.3075  0.0874
 1019W        W 1709   3.111   3.866   0.315 -0.3086 -0.4388 -0.1013
 1020W        W 1710   3.973   1.859  10.488  0.0614 -0.0825  0.1972
 1021W        W 1711   3.722   3.779  10.063  0.2101  0.0391  0.1634
 1022W        W 1712   0.708   1.954   0.662 -0.3365 -0.1054  0.2553
 1023W        W 1713   3.353   2.665   9.241 -0.0068  0.2770  0.1833
 1024W        W 1714   1.366   3.144  11.462  0.0500  0.2973  0.0770
 1025W        W 1715   3.745   4.309  10.197 -0.0769 -0.4908  0.0353
 1026W        W 1716   2.124   0.513   0.653  0.1382 -0.0727  0.1428
 1027W        W 1717   3.310   4.088   1.550 -0.1130  0.0124 -0.0783
 1028W        W 1718   0.484   1.332   2.380 -0.1074  0.3542 -0.2307
 1029W        W 1719   2.938   0.685   2.865 -0.0684 -0.0727  0.0089
 1030W        W 1720   2.991   1.473   2.921 -0.1868 -0.4575 -0.0731
 1031W        W 1721   1.219   3.018   0.350 -0.0433 -0.2866 -0.0200
 1032W        W 1722   2.926   3.610  10.776 -0.4166 -0.1828 -0.1094
 1033W        W 1723   0.328   4.403   1.760  0.1127 -0.3198  0.0426
 1034W        W 1724   2.123   1.534   8.604 -0.1075 -0.0232  0.0079
 1035W        W 1725   2.337   2.575   9.905 -0.0293  0.0364 -0.0994
 1036W        W 1726   1.193   4.284  10.405 -0.0423  0.0671  0.0497
 1037W        W 1727   2.346   3.164   1.281  0.0182  0.2538  0.0176
 1038W        W 1728   2.305   0.150   2.247  0.3869  0.0524  0.0942
 1039W        W 1729   4.239   0.347   0.414  0.0614  0.1319 -0.0369
 1040W        W 1730   1.394   4.233   8.225 -0.0223 -0.3531 -0.0814
 1041W        W 1731   4.446   0.177   9.782  0.0708 -0.0125 -0.1235
 1042W        W 1732   0.130   3.168   9.163  0.0609 -0.2520  0.1621
 1043W        W 1733   1.026   2.975   8.829 -0.3386 -0.0947  0.1448
 1044W        W 1734   0.642   0.713   0.689 -0.0071 -0.0771 -0.0408
 1045W        W 1735   0.921   0.019   3.557 -0.2549  0.2398 -0.0287
 1046W        W 1736   0.644   1.132   9.517  0.0397  0.0297  0.0825
 1047W        W 1737   3.931   2.238   8.775 -0.0928 -0.0785 -0.5183
 1048W        W 1738   1.822   1.549   0.375 -0.0512  0.0247  0.0087
 1049W        W 1739   2.715   2.896   0.871 -0.0665 -0.1802  0.2984
 1050W        W 1740   1.162   1.950   3.495 -0.0318  0.0833  0.0025
 1051W        W 1741   0.814   2.655   8.293 -0.0296  0.0211  0.1927
 1052W        W 1742   1.057   4.403   8.866 -0.4335  0.2379  0.1158
 1053W        W 1743   1.309   3.611   3.938  0.0841  0.0845 -0.2311
 1054W        W 1744   3.422   2.054   9.968  0.0434  0.1119  0.0106
 1055W        W 1745   3.255   1.107   9.471 -0.0071  0.1329 -0.0213
 1056W        W 1746   2.952   0.554   0.665  0.1605  0.2186 -0.3825
 1057W        W 1747   3.505   0.179  11.420 -0.0445  0.2936 -0.0785
 1058W        W 1748   2.891   2.857   3.377  0.2202  0.0042 -0.2206
 1059W        W 1749   4.350   1.359   2.915 -0.0214  0.1706  0.0934
 1060W        W 1750   1.203   3.198   3.719 -0.3710  0.2100  0.2351
 1061W        W 1751   4.241   0.358   0.909 -0.1142  0.1840 -0.0838
 1062W        W 1752   2.853   2.835   0.402  0.0195 -0.0516  0.0483
 1063W        W 1753   3.748   0.261   8.525  0.1602 -0.4612 -0.0628
 1064W        W 1754   2.328   1.764   9.689  0.1069  0.1249  0.1623
 1065W        W 1755   0.823   2.537   8.752 -0.2930 -0.2961  0.1508
 1066W        W 1756   2.185   1.848   0.113  0.2086 -0.0084  0.1360
 1067W        W 1757   0.209   4.102   0.063 -0.1370  0.1705 -0.0659
 1068W        W 1758   2.450   3.682   1.459  0.0158  0.1151 -0.0912
 1069W        W 1759   0.506   4.076   9.669 -0.1359  0.3836 -0.0088
 1070W        W 1760   4.195   3.448   2.166  0.3889 -0.1210 -0.0467
 1071W        W 1761   3.734   3.348   9.681 -0.0594  0.0020 -0.0225
 1072W        W 1762   3.559   2.100   1.588 -0.3306 -0.0081 -0.3088
 1073W        W 1763   1.831   2.921  11.446 -0.1582 -0.1260  0.1002
 1074W        W 1764   3.990   4.021   3.153 -0.3329 -0.0853 -0.0266
 1075W        W 1765   2.483   2.222   2.393  0.0544 -0.0426 -0.3255
 1076W        W 1766   2.975   0.415  10.771 -0.0557 -0.2319  0.0227
 1077W        W 1767   1.968   3.427   8.190  0.1657 -0.1050  0.1896
 1078W        W 1768   1.515   2.788   3.539  0.0966  0.0933 -0.1945
 1079W        W 1769   2.642   2.431   0.534  0.0133  0.2040  0.1324
 1080W        W 1770   0.134   3.363  10.121  0.1475  0.1022 -0.1536
 1081W        W 1771   2.132   0.975   2.594  0.2378 -0.0074 -0.3645
 1082W        W 1772   1.661   0.378   3.546  0.0960 -0.1781  0.1947
 1083W        W 1773   0.243   3.228   8.181 -0.1544  0.0598 -0.3384
 1084W        W 1774   0.985   0.288   1.539 -0.0252  0.1628  0.1299
 1085W        W 1775   0.120   0.130   1.339 -0.1236 -0.2482  0.1211
 1086W        W 1776   3.356   2.448   2.843  0.2587 -0.0097 -0.1874
 1087W        W 1777   3.011   4.062   2.004  0.0346  0.1930  0.0793
 1088W        W 1778   3.228   4.385   0.299  0.1563  0.0633  0.1760
 1089W        W 1779   1.922   0.755   0.159 -0.0804 -0.1771 -0.0064
 1090W        W 1780   1.992   0.090   0.325  0.1521  0.0445 -0.2940
 1091W        W 1781   2.130   1.553   8.063 -0.0477 -0.0705 -0.2344
 1092W        W 1782   1.321   0.131   3.286  0.0435 -0.0271 -0.1393
 1093W        W 1783   3.857   2.816   9.592 -0.0741 -0.1154 -0.2452
 1094W        W 1784   0.947   2.063   9.982  0.0193 -0.0220  0.2402
 1095W        W 1785   4.109   1.608   2.281 -0.3192  0.0414 -0.3097
 1096W        W 1786   0.133   0.570  10.107  0.1463 -0.2909  0.1529
 1097W        W 1787   3.144   1.527   0.352  0.0898 -0.0862 -0.0181
 1098W        W 1788   2.089   2.833   2.797  0.3753  0.1072  0.1826
 1099W        W 1789   2.192   3.966   7.963  0.3777  0.3426 -0.0054
 1100W        W 1790   0.327   3.028   9.587 -0.0729  0.0415 -0.2773
 1101W        W 1791   3.203   2.421   0.274 -0.3317  0.0448  0.2974
 1102W        W 1792   1.546   2.099   8.536 -0.2920  0.0780  0.3756
 1103W        W 1793   1.238   0.188  11.304 -0.0429  0.0135  0.0258
 1104W        W 1794   4.129   4.391   1.236 -0.1868  0.1763  0.1026
 1105W        W 1795   2.181   2.712   2.301  0.2424 -0.1048 -0.0894
 1106W        W 1796   3.170   2.796  11.117  0.1043 -0.1176 -0.2525
 1107W        W 1797   1.528   4.395   0.592 -0.1043 -0.2685 -0.1293
 1108W        W 1798   2.776   1.955   2.730  0.0140  0.0037 -0.0648
 1109W        W 1799   3.370   3.371   8.059  0.1003 -0.2701  0.1743
 1110W        W 1800   0.252   0.069   9.392 -0.1581  0.1522  0.0362
 1111W        W 1801   2.632   0.885   2.506  0.3135  0.3843 -0.3199
 1112W        W 1802   1.088   2.499   9.754 -0.0828 -0.3262 -0.0319
 1113W        W 1803   1.938   0.954   9.885  0.3382 -0.0061 -0.2782
 1114W        W 1804   2.065   1.646  10.323 -0.2293  0.1927  0.3807
 1115W        W 1805   0.672   3.097   8.429  0.0065 -0.1670 -0.1541
 1116W        W 1806   3.419   4.269   9.824  0.1816 -0.0657  0.0318
 1117W        W 1807   0.549   0.323   3.480  0.2935  0.1963 -0.0832
 1118W        W 1808   0.647   1.393  10.597  0.0727 -0.2172 -0.0587
 1119W        W 1809   0.610   0.723   3.049  0.0136 -0.0162 -0.2573
 1120W        W 1810   0.116   3.606   0.269  0.3757  0.3103  0.0431
 1121W        W 1811   2.833   1.374   1.179 -0.1693  0.2186 -0.1927
 1122W        W 1812   0.793   0.522  10.840  0.1682 -0.2158 -0.0828
 1123W        W 1813   2.483   3.443  11.001  0.0329 -0.0852 -0.1000
 1124W        W 1814   3.007   3.955   7.977  0.1035 -0.2621 -0.0830
 1125W        W 1815   4.174   4.018  10.001 -0.1321 -0.3967  0.0970
 1126W        W 1816   1.993   4.316   0.786  0.1767  0.0971  0.2781
 1127W        W 1817   1.226   0.244   7.934 -0.1064 -0.0302  0.1255
 1128W        W 1818   2.815   0.323   1.096 -0.1728  0.0913  0.0464
 1129W        W 1819   0.098   4.329   3.056 -0.2321 -0.2154  0.2344
 1130W        W 1820   0.080   2.751   8.067  0.1033 -0.0902 -0.3353
 1131W        W 1821   0.266   2.953   1.282  0.1499 -0.2751  0.5147
 1132W        W 1822   1.153   0.778   0.574 -0.0210 -0.1164 -0.0233
 1133W        W 1823   1.351   3.926   0.435  0.1895  0.0801  0.4687
 1134W        W 1824   2.131   2.586   3.814  0.0891 -0.0682 -0.1989
 1135W        W 1825   4.469   4.252   0.909  0.2084  0.1085  0.2679
 1136W        W 1826   3.475   2.780  10.557  0.0231  0.1767 -0.0148
 1137W        W 1827   0.475   1.289   1.394  0.2736 -0.0009  0.0014
 1138W        W 1828   0.723   3.374   8.064 -0.1088 -0.1854  0.0709
 1139W        W 1829   3.095   3.119  10.409  0.0285  0.1502 -0.0202
 1140W        W 1830   0.399   1.918   2.899  0.1305  0.1476  0.1932
 1141W        W 1831   4.400   2.672  11.467  0.0466  0.0524 -0.0448
 1142W        W 1832   3.083   1.331  11.454 -0.3901  0.4458 -0.2262
 1143W        W 1833   0.443   4.347   7.927 -0.1995  0.1971 -0.1790
 1144W        W 1834   3.911   1.236  10.109 -0.4447  0.0418 -0.0064
 1145W        W 1835   1.877   4.325   8.031 -0.1904  0.0023 -0.0425
 1146W        W 1836   3.213   4.422  10.557 -0.4044  0.2548 -0.0039
 1147W        W 1837   1.734   2.773   4.007  0.1069 -0.1987 -0.0701
 1148W        W 1838   3.009   4.019   3.945  0.2422  0.1518  0.1721
 1149W        W 1839   0.551   3.884   1.032  0.1928  0.0242  0.0513
 1150W        W 1840   2.782   2.055  10.898 -0.3976 -0.2882 -0.1909
 1151W        W 1841   2.065   1.136   3.080  0.2244 -0.0415 -0.0444
 1152W        W 1842   1.013   1.275   9.760  0.4237  0.1425 -0.2836
 1153W        W 1843   4.212   1.820   2.922  0.1690 -0.1326 -0.0922
 1154W        W 1844   0.844   3.488   3.923  0.1580 -0.0118  0.3828
 1155W        W 1845   1.231   1.707   2.606 -0.0760  0.2283  0.2364
 1156W        W 1846   0.186   4.087   1.330  0.2033 -0.1157 -0.1280
 1157W        W 1847   1.593   2.320   3.318  0.0878 -0.2552 -0.0811
 1158W        W 1848   4.110   2.582   9.934 -0.0265  0.2553  0.3624
 1159W        W 1849   2.338   0.841  10.114  0.0878 -0.0947 -0.2486
 1160W        W 1850   3.341   1.857   2.034  0.0080 -0.2494  0.1048
 1161W        W 1851   3.917   3.353   1.760 -0.0705  0.1504  0.1454
 1162W        W 1852   0.049   3.810   3.006 -0.2196 -0.2586 -0.2573
 1163W        W 1853   1.178   0.732   2.442 -0.0354  0.2220 -0.2589
 1164W        W 1854   0.929   4.427   8.164  0.1532 -0.1116 -0.1046
 1165W        W 1855   0.797   3.206   3.393  0.1017  0.1033  0.2555
 1166W        W 1856   3.846   4.346   9.641 -0.3742 -0.1016  0.0178
 1167W        W 1857   2.320   2.604  10.569  0.0459  0.3020  0.2650
 1168W        W 1858   2.503   1.623   9.273  0.1327  0.4150 -0.0042
 1169W        W 1859   1.596   2.116   4.223 -0.0602 -0.1987  0.0340
 1170W        W 1860   0.337   0.471   0.271  0.3164 -0.1100  0.1579
 1171W        W 1861   1.739   3.252   3.963  0.0279 -0.0733 -0.0923
 1172W        W 1862   0.539   2.928   7.926 -0.1027 -0.2886 -0.2059
 1173W        W 1863   4.129   2.078   0.438  0.0327 -0.1729  0.2381
 1174W        W 1864   0.775   2.794   0.142  0.1526 -0.1133  0.0975
 1175W        W 1865   2.832   1.384  10.937 -0.2059 -0.0474  0.0706
 1176W        W 1866   2.039   1.431   1.582 -0.1378  0.3212  0.0531
 1177W        W 1867   4.472   3.966   2.090 -0.0197  0.0932 -0.0331
 1178W        W 1868   0.110   0.093   8.810  0.2307  0.1118  0.0363
 1179W        W 1869   3.598   3.110   8.770 -0.0922  0.1721  0.0461
 1180W        W 1870   1.887   2.710   1.625 -0.0481 -0.1216 -0.0210
 1181W        W 1871   2.076   3.329   9.715  0.0311 -0.0980 -0.0857
 1182W        W 1872   0.202   1.674   9.852  0.1386 -0.1890 -0.3905
 1183W        W 1873   1.054   4.059   8.525  0.1499  0.0390 -0.1975
 1184W        W 1874   0.529   3.111  10.496  0.0423 -0.0209  0.1537
 1185W        W 1875   2.484   1.141   8.378  0.0045  0.3043  0.0262
 1186W        W 1876   2.401   3.478   9.387 -0.1424 -0.2524 -0.2536
 1187W        W 1877   0.901   3.457   2.442 -0.1196  0.0252  0.1265
 1188W        W 1878   0.462   3.929   3.928  0.0807  0.1162  0.3357
 1189W        W 1879   4.088   3.174  10.855  0.2641  0.0015  0.3174
 1190W        W 1880   0.863   2.142   2.208 -0.2777  0.2762 -0.3487
 1191W        W 1881   3.972   3.131   3.080  0.2404  0.2683  0.1811
 1192W        W 1882   3.600   3.124   7.749  0.1708  0.1505  0.0438
 1193W        W 1883   2.542   2.796   3.012 -0.0934 -0.0135  0.0686
 1194W        W 1884   2.713   1.236   0.190  0.1363 -0.1115 -0.2549
 1195W        W 1885   0.586   2.351  11.504  0.0414 -0.0854  0.0814
 1196W        W 1886   4.472   2.639   2.383 -0.1893 -0.0355 -0.1268
 1197W        W 1887   4.150   0.371   8.824 -0.0488 -0.2143  0.0066
 1198W        W 1888   3.017   2.412   2.494 -0.0501  0.1147 -0.1301
 1199W        W 1889   2.893   1.380   8.978  0.3948 -0.2044  0.1246
 1200W        W 1890   0.941   4.018   3.690  0.0366 -0.0378 -0.1436
 1201W        W 1891   2.665   2.447   1.456  0.1523  0.0863 -0.1643
 1202W        W 1892   3.435   3.179   9.270  0.2283 -0.0160 -0.0701
 1203W        W 1893   4.400   1.738   0.212 -0.0866 -0.0598  0.1222
 1204W        W 1894   3.942   2.285  10.795 -0.1761 -0.2694 -0.0961
 1205W        W 1895   3.191   3.378   1.444  0.1701  0.0296 -0.2593
 1206W        W 1896   0.364   2.872   2.636  0.1943  0.1211 -0.0677
 1207W        W 1897   2.781   3.095  10.811 -0.0258  0.0575  0.1412
 1208W        W 1898   0.352   2.120   9.785  0.1002 -0.2717  0.3506
 1209W        W 1899   2.710   1.868   0.205 -0.1669  0.0503 -0.1193
 1210W        W 1900   4.085   4.351  10.814  0.0141 -0.0320  0.2031
 1211W        W 1901   1.944   2.278   9.470  0.2482 -0.3068 -0.0139
 1212W        W 1902   3.127   4.192   8.505  0.0274  0.3154 -0.1776
 1213W        W 1903   1.658   3.597   9.860  0.2012  0.3185 -0.1990
 1214W        W 1904   2.160   0.093   9.460 -0.1131 -0.0400  0.0336
 1215W        W 1905   3.408   1.987   3.411  0.3680 -0.3451 -0.2294
 1216W        W 1906   4.419   4.203  11.168 -0.1784 -0.0868 -0.1712
 1217W        W 1907   2.913   4.042   3.049  0.2740 -0.0510 -0.4571
 1218W        W 1908   0.048   0.217   7.329  0.0812  0.2070 -0.1481
 1219W        W 1909   2.010   1.945   8.354 -0.0829 -0.3240  0.1887
 1220W        W 1910   2.047   4.082   2.751 -0.0056 -0.0817 -0.0071
 1221W        W 1911   1.962   1.115  11.181  0.1198  0.0711 -0.1338
 1222W        W 1912   2.360   0.738   2.994  0.1351  0.1310 -0.1108
 1223W        W 1913   3.981   4.038   4.220 -0.0549 -0.2792  0.1518
 1224W        W 1914   0.841   1.456   3.705 -0.0727  0.1636  0.0132
 1225W        W 1915   4.005   3.648   2.798 -0.0299  0.1320  0.1956
 1226W        W 1916   2.979   3.627   8.371 -0.1722 -0.0550 -0.0692
 1227W        W 1917   2.819   1.956   0.698 -0.1682  0.1770  0.1173
 1228W        W 1918   1.362   2.902   1.777 -0.0799 -0.1590  0.0205
 1229W        W 1919   0.977   3.210   1.587 -0.1112  0.0582 -0.0277
 1230W        W 1920   4.252   3.115  10.343 -0.0320 -0.0181  0.0665
 1231W        W 1921   0.026   0.200  11.508  0.0410 -0.1699  0.3576
 1232W        W 1922   3.759   2.307   9.773  0.0635 -0.2369  0.2465
 1233W        W 1923   0.778   2.955   1.167  0.3600 -0.0392  0.0600
 1234W        W 1924   0.853   0.674   2.053  0.1341  0.0966 -0.0385
 1235W        W 1925   4.113   1.511   9.738 -0.0046  0.0364 -0.3421
 1236W        W 1926   2.841   0.261   0.331 -0.0005 -0.1973  0.1860
 1237W        W 1927   3.465   0.473  11.009  0.4117  0.2183  0.1316
 1238W        W 1928   3.905   0.270  10.075  0.0544 -0.2528  0.3389
 1239W        W 1929   3.931   2.483   1.780 -0.1351  0.1997 -0.0566
 1240W        W 1930   4.392   4.398   3.892 -0.1774  0.0612 -0.3667
 1241W        W 1931   1.188   2.535   2.116 -0.2164 -0.1435 -0.1359
 1242W        W 1932   2.919   2.633   8.947 -0.0334 -0.3821 -0.2318
 1243W        W 1933   2.607   0.944   1.735 -0.1125  0.0001 -0.0747
 1244W        W 1934   1.420   4.232   2.380 -0.3010 -0.2206 -0.1264
 1245W        W 1935   0.096   0.108   3.477  0.2215  0.3545  0.2352
 1246W        W 1936   2.450   1.630   1.064 -0.1204 -0.0877  0.1032
 1247W        W 1937   1.575   1.384  11.409 -0.0606  0.0396 -0.0336
 1248W        W 1938   2.960   0.990   8.194  0.0658 -0.2623  0.1728
 1249W        W 1939   2.503   1.233   2.845  0.1142 -0.0260  0.1836
 1250W        W 1940   0.840   2.843   9.312  0.1500  0.1461 -0.1829
 1251W        W 1941   1.175   0.766   1.691  0.0360 -0.1418 -0.2339
 1252W        W 1942   3.698   1.062   3.446 -0.0154  0.0668 -0.0183
 1253W        W 1943   1.927   2.347  10.378  0.0566 -0.1066 -0.1850
 1254W        W 1944   4.292   1.424   8.561 -0.0537 -0.2502 -0.0151
 1255W        W 1945   1.207   3.689   1.382  0.0790  0.1022 -0.0415
 1256W        W 1946   2.551   2.215   7.826  0.2905  0.0413 -0.2099
 1257W        W 1947   2.468   1.981   1.850  0.2366 -0.2169 -0.1013
 1258W        W 1948   3.867   3.963  11.144 -0.1314  0.3369  0.2641
 1259W        W 1949   0.530   0.884   3.653 -0.0390  0.3937 -0.0764
 1260W        W 1950   4.303   3.064   1.026  0.1726 -0.1178 -0.0798
 1261W        W 1951   4.042   1.178   8.872 -0.1776  0.0191 -0.0336
 1262W        W 1952   2.105   4.190   1.391  0.0713 -0.1924  0.0946
 1263W        W 1953   3.666   0.773   9.713  0.4352 -0.2104 -0.2250
 1264W        W 1954   0.931   3.507   3.013  0.1920  0.4042  0.1826
 1265W        W 1955   0.405   2.772  11.029 -0.1701  0.0435 -0.1395
 1266W        W 1956   2.105   3.173   9.175  0.1860 -0.0013 -0.0714
 1267W        W 1957   2.383   3.833  10.181 -0.0600 -0.0261  0.2386
 1268W        W 1958   2.156   3.507   3.392 -0.2882 -0.1590  0.2889
 1269W        W 1959   2.575   0.108  11.003 -0.1662  0.1939  0.2367
 1270W        W 1960   2.686   3.940   9.281  0.0569 -0.0409 -0.1244
 1271W        W 1961   1.779   3.199   1.549 -0.3365 -0.2259 -0.2601
 1272W        W 1962   2.323   1.327   9.884  0.3340 -0.0751 -0.1165
 1273W        W 1963   2.766   2.111   8.712 -0.2526 -0.2247  0.0360
 1274W        W 1964   4.306   3.852  10.852 -0.1027  0.0623  0.1988
 1275W        W 1965   4.368   4.170   8.067  0.2967  0.3262  0.0920
 1276W        W 1966   1.107   3.645   8.166 -0.1163 -0.2919  0.0593
 1277W        W 1967   2.578   0.275   7.812  0.1537 -0.0733 -0.4879
 1278W        W 1968   3.368   0.644   3.671  0.1966  0.3343 -0.1368
 1279W        W 1969   3.036   0.228   9.750 -0.0604  0.0756 -0.0197
 1280W        W 1970   4.462   1.938  10.465 -0.1496 -0.0319  0.4403
 1281W        W 1971   3.992   3.942   0.975 -0.1421  0.1189 -0.0251
 1282W        W 1972   2.593   0.402   7.345  0.0450 -0.0230 -0.0554
 1283W        W 1973   1.062   4.396   4.095 -0.0883 -0.3587  0.0735
 1284W        W 1974   3.311   1.669   9.538 -0.4397 -0.1084  0.0352
 1285W        W 1975   0.354   1.487   7.950 -0.0068 -0.1218 -0.4343
 1286W        W 1976   2.908   2.357   9.328  0.2144 -0.0895 -0.2405
 1287W        W 1977   3.840   1.512   9.186  0.1399 -0.0682  0.1671
 1288W        W 1978   2.099   3.582   2.823 -0.2555 -0.0410  0.3368
 1289W        W 1979   1.934   0.588  10.336 -0.0338  0.0671  0.3380
 1290W        W 1980   0.998   2.393   3.593 -0.1407 -0.0453 -0.1578
 1291W        W 1981   3.954   1.882   3.422  0.0486  0.1931  0.2971
 1292W        W 1982   1.645   3.099  11.013  0.1365 -0.1414 -0.3740
 1293W        W 1983   0.993   2.131   8.541 -0.4133 -0.0116  0.0186
 1294W        W 1984   0.933   4.120   9.963  0.0275  0.0102  0.1059
 1295W        W 1985   2.393   3.449   0.418  0.1379  0.0685 -0.0378
 1296W        W 1986   2.921   1.624   1.874 -0.1712 -0.0760  0.1238
 1297W        W 1987   0.159   2.150  11.226 -0.0001  0.0855 -0.1948
 1298W        W 1988   2.358   3.288   3.815  0.0341 -0.2365 -0.3073
 1299W        W 1989   1.238   1.757   8.356 -0.1104  0.0812 -0.0016
 1300W        W 1990   3.639   1.973  11.416  0.2458 -0.3440 -0.0324
 1301W        W 1991   4.133   2.797   1.451 -0.0057 -0.3561 -0.0350
 1302W        W 1992   4.366   0.615   2.840 -0.0596 -0.1287 -0.1958
 1303W        W 1993   4.140   3.293   9.374 -0.1986 -0.4787 -0.0619
 1304W        W 1994   2.514   3.480   0.948  0.2312 -0.1506  0.1543
 1305W        W 1995   0.588   2.615   9.924  0.1781  0.1036  0.1383
 1306W        W 1996   1.816   2.222   3.760  0.0968 -0.4380  0.3705
 1307W        W 1997   0.770   2.285   9.395 -0.1604  0.0348  0.0797
 1308W        W 1998   3.843   0.072   8.975 -0.1467 -0.0428 -0.5038
 1309W        W 1999   3.704   3.703   3.478  0.3727 -0.1771 -0.2493
 1310W        W 2000   0.301   0.942  10.451 -0.4026  0.0418 -0.1414
 1311W        W 2001   3.141   0.759  10.413  0.1182  0.0011 -0.2205
 1312W        W 2002   3.173   3.546   2.068  0.0839 -0.2625  0.1917
 1313W        W 2003   1.852   1.834   9.851 -0.0822  0.0097  0.0685
 1314W        W 2004   1.171   3.016   8.338 -0.0322 -0.2021  0.0347
 1315W        W 2005   2.696   3.854   8.763 -0.2755 -0.1580  0.1740
 1316W        W 2006   1.211   0.743  10.535 -0.0857 -0.0308  0.2408
 1317W        W 2007   1.976   3.704   3.888 -0.1748  0.0957  0.2840
 1318W        W 2008   4.005   1.138   1.640 -0.2336  0.1555 -0.0506
 1319W        W 2009   1.225   0.249   8.411 -0.1500 -0.1226 -0.2809
 1320W        W 2010   1.473   2.444   1.652 -0.1486  0.2969  0.0895
 1321W        W 2011   1.087   4.146   3.138 -0.1386  0.1862 -0.1874
 1322W        W 2012   0.651   4.153   7.495  0.1396 -0.0053 -0.1938
 1323W        W 2013   1.986   1.121  10.333 -0.1795 -0.0522  0.2859
 1324W        W 2014   2.894   2.021   2.175 -0.1105 -0.0874 -0.0006
 1325W        W 2015   3.057   2.868   2.251  0.2351 -0.1399 -0.0971
 1326W        W 2016   4.182   2.029   9.935  0.2566 -0.0424  0.0381
 1327W        W 2017   3.084   0.966   0.415  0.2628  0.3516 -0.3471
 1328W        W 2018   1.055   3.755  10.277  0.1872  0.2556  0.2455
 1329W        W 2019   1.643   2.722   3.068 -0.2721  0.4117  0.1521
 1330W        W 2020   1.153   3.560   9.756  0.1535 -0.0587 -0.0788
 1331W        W 2021   4.298   0.109   9.234 -0.1601  0.1260  0.0371
 1332W        W 2022   0.837   0.039   9.400 -0.2473 -0.0077 -0.0501
 1333W        W 2023   1.659   0.799   3.860  0.1204  0.0646  0.1202
 1334W        W 2024   0.303   1.470   8.435  0.2287  0.1903  0.2533
 1335W        W 2025   0.737   1.693   8.276 -0.2863  0.4102 -0.2343
 1336W        W 2026   2.960   3.169   8.255  0.0280 -0.0125  0.0553
 1337W        W 2027   2.024   1.148   0.551  0.0679 -0.0347  0.1701
 1338W        W 2028   4.398   0.656   2.355 -0.0631 -0.2765  0.0188
 1339W        W 2029   1.130   0.764  11.191  0.0853  0.5596 -0.2055
 1340W        W 2030   1.575   2.757  10.616  0.0477 -0.0059 -0.0000
 1341W        W 2031   2.771   1.006  11.227 -0.1735 -0.0377 -0.2745
 1342W        W 2032   1.452   0.156   9.157 -0.0893  0.0602 -0.1598
 1343W        W 2033   3.602   1.981   1.075  0.1657  0.2844 -0.0334
 1344W        W 2034   1.535   3.345  10.596 -0.1583  0.0610  0.2205
 1345W        W 2035   1.699   0.254   2.930 -0.3426 -0.0965  0.1486
 1346W        W 2036   0.467   3.440   2.881  0.2952 -0.0645 -0.1565
 1347W        W 2037   0.094   1.844   2.145  0.2896  0.0346  0.0564
 1348W        W 2038   1.139   3.614   0.122 -0.1130  0.0736 -0.0807
 1349W        W 2039   0.018   1.756   0.698  0.0022  0.0963 -0.1952
 1350W        W 2040   1.173   2.188   0.841  0.2759 -0.3699  0.0867
 1351W        W 2041   0.369   2.289   8.829 -0.2147 -0.0293 -0.1373
 1352W        W 2042   4.132   0.711   9.987  0.1837  0.0641 -0.5257
 1353W        W 2043   2.109   3.199  10.853  0.1136  0.2135  0.3430
 1354W        W 2044   1.340   2.570   8.696 -0.1532  0.0465  0.2903
 1355W        W 2045   1.698   2.529   0.975  0.1212 -0.0812  0.2596
 1356W        W 2046   1.251   2.436   3.014 -0.2556  0.1700 -0.2554
 1357W        W 2047   0.123   0.706   9.617 -0.0955  0.1461  0.3653
 1358W        W 2048   3.061   0.572  11.325 -0.1676 -0.1824  0.0035
 1359W        W 2049   3.512   3.647   1.679 -0.3348  0.1543  0.2015
 1360W        W 2050   2.444   2.995  11.217 -0.0739 -0.0222  0.0480
 1361W        W 2051   2.424   0.607   1.439  0.0188  0.2164 -0.0346
 1362W        W 2052   3.664   4.390   7.611  0.1033 -0.0401 -0.1195
 1363W        W 2053   3.715   2.836  11.087  0.1334  0.1222  0.2435
 1364W        W 2054   2.027   0.286   8.589 -0.3221  0.0930  0.0928
 1365W        W 2055   3.394   3.172   2.436  0.1176  0.2737  0.2645
 1366W        W 2056   2.278   2.065  10.062  0.3296  0.0351  0.2902
 1367W        W 2057   1.481   0.510   9.540  0.0736  0.2364 -0.2956
 1368W        W 2058   4.065   2.574   0.268  0.1384  0.0617  0.0410
 1369W        W 2059   2.658   0.329  11.458 -0.1469  0.1236 -0.0794
 1370W        W 2060   1.693   0.227   8.235  0.0594  0.1836  0.2974
 1371W        W 2061   2.935   1.833   9.282 -0.1137 -0.1895  0.0902
 1372W        W 2062   1.126   3.250   0.963  0.2405 -0.0923  0.1394
 1373W        W 2063   0.769   3.474   1.214 -0.0945  0.2820  0.2352
 1374W        W 2064   0.051   4.073   3.486 -0.0169 -0.0617  0.3050
 1375ION     NA 2065   2.242   3.810   9.719 -0.2241 -0.3513 -0.0375
 1376ION     NA 2066   1.484   4.421  10.057  0.1644  0.0142 -0.0084
 1377ION     NA 2067   3.065   0.223  11.530  0.3463  0.3917  0.3699
 1378ION     NA 2068   2.870   2.563   1.128 -0.1307 -0.2393  0.0582
 1379ION     NA 2069   1.224   2.937   9.229  0.1830  0.0549 -0.0784
 1380ION     NA 2070   3.616   2.023  10.623 -0.5431 -0.2001 -0.1333
 1381ION     NA 2071   1.871   1.853   2.900  0.2721 -0.2067  0.1014
 1382ION     NA 2072   2.232   1.785   1.359  0.4568  0.4371 -0.3156
 1383ION     NA 2073   1.487   0.359   1.696  0.1008  0.0751  0.2368
 1384ION     NA 2074   4.232   3.993   1.329  0.0442 -0.1451 -0.1296
 1385ION     NA 2075   3.129   0.932  11.563  0.1666  0.0534  0.0298
 1386ION     NA 2076   4.155   2.512   9.102 -0.0722 -0.0625 -0.2355
 1387ION     NA 2077   4.025   0.645   2.536  0.1192 -0.4504  0.0465
 1388ION     NA 2078   0.265   3.968   1.741  0.0292  0.1059  0.5263
 1389ION     CL 2079   3.405   0.043   8.342  0.0949  0.1188  0.2294
 1390ION     CL 2080   2.444   4.404  11.378 -0.6665 -0.0173  0.3119
 1391ION     CL 2081   1.888   0.378   9.550  0.0259 -0.2072 -0.0766
 1392ION     CL 2082   3.719   1.799   2.198 -0.4310 -0.1571  0.0772
 1393ION     CL 2083   3.857   1.437  10.571  0.0647 -0.0032  0.0907
 1394ION     CL 2084   3.378   1.043  11.295 -0.0034 -0.5213 -0.4107
 1395ION     CL 2085   2.592   4.329  10.177  0.5668  0.0632  0.3229
 1396ION     CL 2086   4.017   2.021   9.189 -0.5565  0.0937  0.2132
 1397ION     CL 2087   0.538   4.249  10.880  0.1263 -0.0136  0.0967
 1398ION     CL 2088   2.692   2.615   8.593 -0.2879  0.1371  0.0289
 1399ION     CL 2089   0.713   4.264   1.817 -0.0270  0.0765 -0.0985
 1400ION     CL 2090   0.346   1.811   8.183  0.1889 -0.0793 -0.1140
 1401ION     CL 2091   2.448   2.005   3.118 -0.1780 -0.3269  0.2554
 1402ION     CL 2092   2.747   0.975   0.741  0.4472  0.3996  0.0165
   4.47345   4.47345  11.59004
