INSANE! Membrane UpperLeaflet>CER6:POPC=30.0:70.0 LowerLeaflet>CER6:POPC=30.0:70.0 t=   0.00000 step= 0
  160
    1CER6   NOH    1   3.540   0.790   7.690
    1CER6    OH    2   3.240   1.000   7.700
    1CER6   GLA    3   3.490   0.510   7.640
    1CER6   GLB    4   3.500   1.060   7.510
    1CER6   C1A    5   3.900   0.320   7.250
    1CER6   C2A    6   4.450   0.300   7.210
    1CER6   C1B    7   3.620   0.730   7.170
    1CER6   C2B    8   3.560   0.170   6.960
    2CER6   NOH    9   2.570   1.370   7.110
    2CER6    OH   10   2.710   1.540   7.430
    2CER6   GLA   11   2.420   1.130   7.060
    2CER6   GLB   12   2.840   1.500   7.170
    2CER6   C1A   13   2.430   1.170   6.480
    2CER6   C2A   14   2.070   1.420   6.140
    2CER6   C1B   15   3.190   1.530   6.920
    2CER6   C2B   16   3.330   1.570   6.400
    3CER6   NOH   17   1.230  -0.038   7.510
    3CER6    OH   18   1.120  -0.388   7.550
    3CER6   GLA   19   1.310   0.210   7.480
    3CER6   GLB   20   1.260  -0.278   7.340
    3CER6   C1A   21   0.830   0.470   7.120
    3CER6   C2A   22   0.660   0.750   6.720
    3CER6   C1B   23   1.030   0.010   7.070
    3CER6   C2B   24   0.800   0.250   6.640
    4CER6   NOH   25   3.680   3.700   7.530
    4CER6    OH   26   3.670   3.950   7.800
    4CER6   GLA   27   3.450   3.740   7.410
    4CER6   GLB   28   3.880   3.900   7.610
    4CER6   C1A   29   3.680   4.180   7.010
    4CER6   C2A   30   3.670   4.360   6.470
    4CER6   C1B   31   3.850   3.780   7.140
    4CER6   C2B   32   3.920   3.920   6.580
    5CER6   NOH   33   4.140   1.100   7.470
    5CER6    OH   34   4.280   1.400   7.690
    5CER6   GLA   35   3.950   0.880   7.470
    5CER6   GLB   36   4.070   1.390   7.470
    5CER6   C1A   37   4.070   0.640   6.950
    5CER6   C2A   38   4.320   0.680   6.440
    5CER6   C1B   39   4.170   1.180   7.040
    5CER6   C2B   40   4.548   0.860   6.830
    6CER6   NOH   41   1.820   3.240   7.530
    6CER6    OH   42   1.910   2.910   7.700
    6CER6   GLA   43   1.800   3.530   7.530
    6CER6   GLB   44   1.780   3.000   7.440
    6CER6   C1A   45   1.730   3.560   6.930
    6CER6   C2A   46   1.620   3.510   6.440
    6CER6   C1B   47   1.790   2.910   6.970
    6CER6   C2B   48   1.920   3.110   6.550
    7CER6   NOH   49   1.900   2.440   7.360
    7CER6    OH   50   1.600   2.310   7.490
    7CER6   GLA   51   2.050   2.660   7.260
    7CER6   GLB   52   1.680   2.240   7.230
    7CER6   C1A   53   2.130   2.570   6.680
    7CER6   C2A   54   2.020   2.650   6.180
    7CER6   C1B   55   1.520   2.480   6.920
    7CER6   C2B   56   1.550   2.680   6.380
    8CER6   NOH   57   2.470   0.640   7.460
    8CER6    OH   58   2.160   0.700   7.650
    8CER6   GLA   59   2.740   0.580   7.260
    8CER6   GLB   60   2.210   0.790   7.400
    8CER6   C1A   61   2.480   0.770   6.760
    8CER6   C2A   62   2.250   0.590   6.350
    8CER6   C1B   63   2.060   0.860   6.990
    8CER6   C2B   64   1.910   1.190   6.590
    9CER6   NOH   65   1.350   3.450   7.790
    9CER6    OH   66   1.360   3.800   7.910
    9CER6   GLA   67   1.450   3.170   7.780
    9CER6   GLB   68   1.370   3.700   7.620
    9CER6   C1A   69   1.160   2.960   7.320
    9CER6   C2A   70   0.800   3.270   7.010
    9CER6   C1B   71   1.420   3.410   7.340
    9CER6   C2B   72   1.390   3.160   6.830
   10CER6   NOH   73   1.910   1.330   7.410
   10CER6    OH   74   2.170   1.200   7.590
   10CER6   GLA   75   1.620   1.380   7.330
   10CER6   GLB   76   2.220   1.390   7.380
   10CER6   C1A   77   1.430   1.340   6.800
   10CER6   C2A   78   1.470   1.260   6.280
   10CER6   C1B   79   2.130   1.470   6.940
   10CER6   C2B   80   2.290   1.750   6.440
   36CER6   NOH   81   3.000   1.650   4.150
   36CER6    OH   82   3.340   1.680   4.030
   36CER6   GLA   83   2.800   1.510   4.290
   36CER6   GLB   84   3.250   1.870   4.230
   36CER6   C1A   85   2.960   1.380   4.850
   36CER6   C2A   86   3.150   1.360   5.360
   36CER6   C1B   87   3.410   2.000   4.690
   36CER6   C2B   88   3.720   1.910   5.140
   37CER6   NOH   89   3.600   3.940   4.040
   37CER6    OH   90   3.960   3.820   3.990
   37CER6   GLA   91   3.320   4.070   4.030
   37CER6   GLB   92   3.700   3.690   4.080
   37CER6   C1A   93   3.140   4.010   4.610
   37CER6   C2A   94   2.810   3.770   4.980
   37CER6   C1B   95   3.740   3.440   4.470
   37CER6   C2B   96   3.570   3.240   4.960
   38CER6   NOH   97   4.440   1.290   4.230
   38CER6    OH   98   4.320   1.260   3.860
   38CER6   GLA   99   4.270   1.480   4.370
   38CER6   GLB  100   4.420   1.050   4.050
   38CER6   C1A  101   4.380   1.240   4.870
   38CER6   C2A  102   4.548   1.320   5.350
   38CER6   C1B  103   4.280   0.960   4.470
   38CER6   C2B  104   4.010   0.670   4.870
   39CER6   NOH  105   2.550   1.470   3.900
   39CER6    OH  106   2.740   1.170   3.720
   39CER6   GLA  107   2.460   1.670   4.110
   39CER6   GLB  108   2.650   1.220   4.010
   39CER6   C1A  109   2.620   1.660   4.650
   39CER6   C2A  110   2.650   1.760   5.180
   39CER6   C1B  111   2.660   1.080   4.430
   39CER6   C2B  112   2.710   0.940   4.960
   40CER6   NOH  113   4.130   3.250   4.260
   40CER6    OH  114   4.090   3.420   3.970
   40CER6   GLA  115   4.030   3.080   4.480
   40CER6   GLB  116   4.190   3.540   4.240
   40CER6   C1A  117   4.100   3.280   5.020
   40CER6   C2A  118   3.810   3.280   5.440
   40CER6   C1B  119   4.490   3.510   4.540
   40CER6   C2B  120   4.718   3.540   5.030
   41CER6   NOH  121   1.380   1.570   4.150
   41CER6    OH  122   1.670   1.390   4.170
   41CER6   GLA  123   1.180   1.790   4.170
   41CER6   GLB  124   1.500   1.460   4.410
   41CER6   C1A  125   0.820   1.540   4.600
   41CER6   C2A  126   0.900   1.080   4.890
   41CER6   C1B  127   1.250   1.750   4.720
   41CER6   C2B  128   0.860   1.630   5.080
   42CER6   NOH  129   4.340   2.240   4.320
   42CER6    OH  130   4.310   1.880   4.200
   42CER6   GLA  131   4.548   2.390   4.290
   42CER6   GLB  132   4.130   2.020   4.360
   42CER6   C1A  133   4.668   2.310   4.850
   42CER6   C2A  134   4.588   2.510   5.330
   42CER6   C1B  135   3.910   2.240   4.710
   42CER6   C2B  136   3.480   2.380   5.070
   43CER6   NOH  137   0.450   4.130   4.060
   43CER6    OH  138   0.520   4.440   3.810
   43CER6   GLA  139   0.620   3.930   4.010
   43CER6   GLB  140   0.380   4.400   4.050
   43CER6   C1A  141   0.530   3.660   4.550
   43CER6   C2A  142   0.670   3.310   4.840
   43CER6   C1B  143   0.400   4.270   4.540
   43CER6   C2B  144   0.380   4.160   5.100
   44CER6   NOH  145   4.180   4.460   3.870
   44CER6    OH  146   3.980   4.290   3.650
   44CER6   GLA  147   4.210   4.748   3.890
   44CER6   GLB  148   4.170   4.190   3.840
   44CER6   C1A  149   4.040   4.758   4.460
   44CER6   C2A  150   3.950   4.678   5.010
   44CER6   C1B  151   4.460   4.030   4.150
   44CER6   C2B  152   4.480   4.070   4.720
   45CER6   NOH  153   2.410   3.110   4.090
   45CER6    OH  154   2.340   3.400   3.830
   45CER6   GLA  155   2.430   2.850   4.180
   45CER6   GLB  156   2.560   3.180   3.860
   45CER6   C1A  157   2.740   2.870   4.720
   45CER6   C2A  158   3.020   2.450   4.920
   45CER6   C1B  159   2.810   3.170   4.300
   45CER6   C2B  160   3.260   3.250   4.480
   4.49821   4.49821  11.52745
