INSANE! Membrane UpperLeaflet>CER6:POPC=30.0:70.0 LowerLeaflet>CER6:POPC=30.0:70.0
 2092
    1CER6   NOH    1   3.544   0.793   7.686 -0.0941  0.0590 -0.0602
    1CER6    OH    2   3.244   0.998   7.699 -0.2927  0.0920 -0.0144
    1CER6   GLA    3   3.485   0.509   7.644 -0.1208  0.2511 -0.0350
    1CER6   GLB    4   3.503   1.058   7.514 -0.1275  0.0964 -0.2085
    1CER6   C1A    5   3.897   0.323   7.254  0.0082 -0.1040 -0.4393
    1CER6   C2A    6   4.445   0.300   7.209  0.1863  0.1637  0.0019
    1CER6   C1B    7   3.622   0.725   7.167  0.0649 -0.0800 -0.0961
    1CER6   C2B    8   3.559   0.168   6.955  0.0646 -0.0485  0.3863
    2CER6   NOH    9   2.567   1.371   7.110 -0.3128  0.1947 -0.0166
    2CER6    OH   10   2.711   1.535   7.428  0.3952 -0.3693  0.0639
    2CER6   GLA   11   2.417   1.126   7.064 -0.0051  0.0184  0.1176
    2CER6   GLB   12   2.835   1.499   7.166 -0.0759  0.3922 -0.3925
    2CER6   C1A   13   2.434   1.175   6.482 -0.2560  0.2109  0.1387
    2CER6   C2A   14   2.067   1.419   6.140  0.0912 -0.1578  0.1714
    2CER6   C1B   15   3.187   1.529   6.923 -0.1340  0.3777 -0.2192
    2CER6   C2B   16   3.331   1.569   6.397  0.0523 -0.2480  0.1887
    3CER6   NOH   17   1.233   4.464   7.513  0.0831  0.0690  0.1386
    3CER6    OH   18   1.123   4.115   7.553 -0.2804 -0.0020  0.2934
    3CER6   GLA   19   1.313   4.709   7.480  0.0446  0.2535 -0.6662
    3CER6   GLB   20   1.259   4.219   7.335 -0.1433 -0.1120  0.2450
    3CER6   C1A   21   0.832   4.964   7.118 -0.0137 -0.0496 -0.0854
    3CER6   C2A   22   0.664   5.246   6.721 -0.5010 -0.0011 -0.1400
    3CER6   C1B   23   1.032   4.510   7.067 -0.2073  0.0142 -0.0053
    3CER6   C2B   24   0.800   4.748   6.637  0.3272 -0.0761 -0.1463
    4CER6   NOH   25   3.684   3.696   7.534 -0.4138  0.1420  0.0622
    4CER6    OH   26   3.674   3.945   7.800 -0.0697  0.2766 -0.1952
    4CER6   GLA   27   3.452   3.737   7.412 -0.2996 -0.1251  0.4997
    4CER6   GLB   28   3.879   3.895   7.606 -0.2592 -0.3999  0.0186
    4CER6   C1A   29   3.684   4.181   7.013 -0.0840 -0.1395  0.1559
    4CER6   C2A   30   3.671   4.363   6.467  0.0578  0.1602 -0.0613
    4CER6   C1B   31   3.851   3.779   7.137 -0.1510 -0.1759 -0.2666
    4CER6   C2B   32   3.924   3.922   6.580 -0.1354 -0.0111 -0.0611
    5CER6   NOH   33   4.139   1.102   7.473 -0.0090  0.2983 -0.0073
    5CER6    OH   34   4.283   1.399   7.688 -0.1309 -0.0181  0.1952
    5CER6   GLA   35   3.950   0.882   7.469  0.2274 -0.2048  0.0319
    5CER6   GLB   36   4.068   1.394   7.467 -0.2811 -0.1134 -0.3453
    5CER6   C1A   37   4.065   0.642   6.945 -0.2194 -0.2277 -0.1795
    5CER6   C2A   38   4.321   0.684   6.438  0.1553 -0.2512  0.1262
    5CER6   C1B   39   4.171   1.182   7.037 -0.2635 -0.0240 -0.0494
    5CER6   C2B   40   4.545   0.858   6.833  0.0360  0.1624  0.6270
    6CER6   NOH   41   1.821   3.243   7.527  0.1784 -0.2262 -0.2707
    6CER6    OH   42   1.911   2.910   7.700 -0.1715 -0.2151  0.2170
    6CER6   GLA   43   1.803   3.525   7.530  0.2134  0.1055 -0.1369
    6CER6   GLB   44   1.775   2.995   7.442  0.0217  0.0045  0.1829
    6CER6   C1A   45   1.729   3.562   6.930  0.3894 -0.0024  0.0034
    6CER6   C2A   46   1.618   3.513   6.443 -0.0067  0.2615 -0.0746
    6CER6   C1B   47   1.789   2.905   6.970  0.2522 -0.0480 -0.1115
    6CER6   C2B   48   1.916   3.108   6.550 -0.1300 -0.0553 -0.1021
    7CER6   NOH   49   1.903   2.444   7.355  0.3702 -0.0206  0.1393
    7CER6    OH   50   1.602   2.311   7.490 -0.0159  0.2210  0.1195
    7CER6   GLA   51   2.050   2.664   7.257 -0.2022  0.2386 -0.2944
    7CER6   GLB   52   1.677   2.244   7.232 -0.0118  0.1946  0.0260
    7CER6   C1A   53   2.133   2.569   6.682 -0.1070 -0.0455 -0.1311
    7CER6   C2A   54   2.015   2.653   6.177  0.0986 -0.2490  0.2487
    7CER6   C1B   55   1.517   2.477   6.915  0.1067  0.1647  0.0200
    7CER6   C2B   56   1.550   2.682   6.378 -0.0517  0.0990 -0.1965
    8CER6   NOH   57   2.473   0.636   7.461  0.3709 -0.3057  0.2466
    8CER6    OH   58   2.163   0.696   7.646 -0.1841  0.4324  0.5963
    8CER6   GLA   59   2.740   0.578   7.263 -0.0755 -0.0146  0.0085
    8CER6   GLB   60   2.212   0.793   7.400 -0.0466 -0.2245 -0.1508
    8CER6   C1A   61   2.485   0.765   6.758 -0.1093  0.0602  0.0735
    8CER6   C2A   62   2.250   0.586   6.353  0.0667  0.0538 -0.4122
    8CER6   C1B   63   2.059   0.857   6.986 -0.1575 -0.2141  0.0600
    8CER6   C2B   64   1.912   1.188   6.594  0.0815  0.2965 -0.1927
    9CER6   NOH   65   1.346   3.453   7.786 -0.1866  0.1394 -0.1519
    9CER6    OH   66   1.357   3.797   7.908 -0.2964  0.0847  0.4742
    9CER6   GLA   67   1.449   3.169   7.783 -0.2413  0.3743 -0.3318
    9CER6   GLB   68   1.371   3.699   7.622  0.0524  0.1381 -0.1348
    9CER6   C1A   69   1.164   2.959   7.321 -0.1288  0.2039  0.0348
    9CER6   C2A   70   0.800   3.265   7.012  0.2748  0.1457  0.1358
    9CER6   C1B   71   1.415   3.406   7.338 -0.0637  0.0449  0.0151
    9CER6   C2B   72   1.387   3.161   6.831  0.0183 -0.1147  0.1115
   10CER6   NOH   73   1.909   1.332   7.408  0.1754  0.0227 -0.2452
   10CER6    OH   74   2.174   1.195   7.590 -0.1400  0.0013 -0.4600
   10CER6   GLA   75   1.616   1.378   7.333  0.1008  0.1614 -0.1273
   10CER6   GLB   76   2.217   1.392   7.375 -0.0084 -0.3357  0.0298
   10CER6   C1A   77   1.434   1.339   6.796  0.3791  0.0839 -0.0354
   10CER6   C2A   78   1.471   1.261   6.279  0.1338 -0.2121  0.4021
   10CER6   C1B   79   2.127   1.467   6.939 -0.1227  0.0798  0.3158
   10CER6   C2B   80   2.289   1.751   6.444  0.0012 -0.2679 -0.3869
   11POPC   NC3   81   2.195   3.689   7.587 -0.0369 -0.1391 -0.0927
   11POPC   PO4   82   2.250   3.306   7.709  0.0495  0.1928  0.1073
   11POPC   GL1   83   2.211   3.029   7.374  0.1196  0.1444  0.0711
   11POPC   GL2   84   2.388   2.975   7.293  0.0894 -0.0528  0.0410
   11POPC   C1A   85   2.083   3.284   7.058 -0.0185 -0.0656 -0.2050
   11POPC   D2A   86   2.205   3.511   6.653  0.2911  0.4154  0.1867
   11POPC   C3A   87   2.575   3.511   6.307 -0.1269 -0.0317  0.1406
   11POPC   C4A   88   2.856   3.488   5.977  0.2258 -0.0190  0.3827
   11POPC   C1B   89   2.544   3.061   6.974  0.4052 -0.3033 -0.1445
   11POPC   C2B   90   2.409   2.977   6.604 -0.1220 -0.2674  0.2040
   11POPC   C3B   91   2.275   3.059   6.125  0.3736  0.1206 -0.2933
   11POPC   C4B   92   2.137   2.869   5.752  0.0669 -0.0991  0.0575
   12POPC   NC3   93   0.098   1.415   7.970 -0.3490  0.0348 -0.0022
   12POPC   PO4   94   0.204   1.309   7.625 -0.0056 -0.0842  0.0296
   12POPC   GL1   95   0.026   1.242   7.294 -0.3543 -0.1234  0.0113
   12POPC   GL2   96   0.338   1.222   7.206 -0.1189  0.0077  0.1887
   12POPC   C1A   97  -0.088   1.600   7.129  0.3255 -0.2598  0.1485
   12POPC   D2A   98  -0.245   1.999   6.886 -0.0201 -0.0476 -0.3380
   12POPC   C3A   99  -0.309   2.014   6.439  0.1040 -0.3167 -0.2661
   12POPC   C4A  100  -0.223   2.187   6.024 -0.1797 -0.1267  0.2403
   12POPC   C1B  101   0.307   1.217   6.854 -0.1441  0.3714  0.0771
   12POPC   C2B  102   0.255   1.141   6.428  0.0742  0.1198 -0.1639
   12POPC   C3B  103   0.019   0.930   6.032  0.1511 -0.0558 -0.4027
   12POPC   C4B  104  -0.167   0.847   5.618 -0.1285  0.0056  0.1460
   13POPC   NC3  105   1.040   0.852   7.407 -0.0119 -0.0020 -0.1601
   13POPC   PO4  106   1.355   1.041   7.454  0.3012 -0.2575  0.1472
   13POPC   GL1  107   1.353   0.906   7.047  0.0002  0.3953  0.3097
   13POPC   GL2  108   1.118   0.920   6.959 -0.3059  0.1208  0.3004
   13POPC   C1A  109   1.600   0.788   6.699 -0.2741  0.1688 -0.2273
   13POPC   D2A  110   1.757   0.682   6.231  0.2776 -0.1099 -0.1913
   13POPC   C3A  111   1.958   0.355   6.010  0.1089 -0.0528  0.0038
   13POPC   C4A  112   2.138   0.200   5.593 -0.2139 -0.1717 -0.1130
   13POPC   C1B  113   1.163   0.939   6.567  0.0206  0.1236 -0.3675
   13POPC   C2B  114   1.198   0.869   6.175 -0.0533 -0.0730 -0.1394
   13POPC   C3B  115   1.445   0.679   5.764  0.2170  0.0972  0.0776
   13POPC   C4B  116   1.805   0.584   5.529  0.0510  0.0992 -0.0098
   14POPC   NC3  117   1.733   1.895   7.597  0.1735  0.0795 -0.1774
   14POPC   PO4  118   1.367   1.912   7.708 -0.1606  0.0572 -0.4832
   14POPC   GL1  119   1.232   2.052   7.293 -0.0765  0.2848 -0.0387
   14POPC   GL2  120   1.226   2.366   7.430 -0.1371  0.2500  0.1282
   14POPC   C1A  121   1.140   2.057   6.842  0.3297  0.0119 -0.0496
   14POPC   D2A  122   1.141   1.650   6.516  0.2955 -0.2505  0.0465
   14POPC   C3A  123   1.125   1.499   6.066  0.0155 -0.0224 -0.0272
   14POPC   C4A  124   1.320   1.200   5.777 -0.2748  0.2058  0.1994
   14POPC   C1B  125   1.083   2.529   7.148 -0.1819 -0.1095  0.2229
   14POPC   C2B  126   1.095   2.700   6.776 -0.0082  0.2039  0.0538
   14POPC   C3B  127   0.703   2.872   6.524 -0.2204  0.0099 -0.2343
   14POPC   C4B  128   0.546   3.153   6.160 -0.0282  0.0367  0.5340
   15POPC   NC3  129   4.196   2.287   8.082 -0.1590  0.2034  0.1089
   15POPC   PO4  130   4.435   2.291   7.774 -0.2108 -0.2126 -0.1291
   15POPC   GL1  131   4.318   2.289   7.379 -0.1061  0.1935  0.4025
   15POPC   GL2  132   4.245   2.006   7.366 -0.0238 -0.0464  0.1033
   15POPC   C1A  133   4.225   2.450   7.032 -0.1648 -0.0127 -0.1280
   15POPC   D2A  134   4.071   2.522   6.576  0.0156  0.0689 -0.1417
   15POPC   C3A  135   4.163   2.744   6.144 -0.1387 -0.2036  0.1767
   15POPC   C4A  136   4.196   3.053   5.727  0.1971  0.0006  0.1417
   15POPC   C1B  137   4.047   1.836   7.217  0.1756  0.2114  0.0956
   15POPC   C2B  138   3.930   1.632   6.916 -0.1211  0.1409 -0.1651
   15POPC   C3B  139   4.118   1.461   6.527  0.0016 -0.0779 -0.0007
   15POPC   C4B  140   4.120   1.113   6.201  0.3119  0.0498  0.0188
   16POPC   NC3  141   3.626   2.023   7.637  0.1470 -0.0777 -0.0559
   16POPC   PO4  142   3.870   2.327   7.723  0.0294 -0.0954  0.1525
   16POPC   GL1  143   3.885   2.367   7.348  0.0545  0.0937 -0.4471
   16POPC   GL2  144   3.730   2.150   7.172  0.1515 -0.3057  0.0432
   16POPC   C1A  145   3.832   2.758   7.138 -0.2020 -0.1468  0.1613
   16POPC   D2A  146   3.854   3.094   6.875  0.0433  0.1040 -0.2886
   16POPC   C3A  147   3.790   2.995   6.397  0.0093 -0.1436 -0.2430
   16POPC   C4A  148   3.779   2.977   5.883  0.0513 -0.1464  0.0778
   16POPC   C1B  149   3.745   2.324   6.859  0.0924 -0.3870 -0.0618
   16POPC   C2B  150   3.582   2.515   6.558  0.0546  0.0184 -0.0920
   16POPC   C3B  151   3.410   2.704   6.113  0.0013  0.2367 -0.3975
   16POPC   C4B  152   3.066   2.849   5.807  0.1666  0.0012 -0.1454
   17POPC   NC3  153   3.336   1.262   8.011  0.1831 -0.0346  0.0269
   17POPC   PO4  154   3.479   1.510   7.731  0.1633  0.0896  0.1501
   17POPC   GL1  155   3.596   1.441   7.288  0.4704 -0.1054  0.0246
   17POPC   GL2  156   3.622   1.725   7.249  0.2120  0.2115  0.2882
   17POPC   C1A  157   3.649   1.230   6.957  0.0027  0.0806  0.1852
   17POPC   D2A  158   3.865   1.017   6.650  0.0921 -0.0925 -0.0960
   17POPC   C3A  159   3.650   0.608   6.642 -0.2667 -0.3667  0.0166
   17POPC   C4A  160   3.309   0.287   6.441  0.0325 -0.1707 -0.5253
   17POPC   C1B  161   3.536   1.820   6.911 -0.1760  0.0663  0.2754
   17POPC   C2B  162   3.691   1.961   6.575  0.1571 -0.1920  0.0024
   17POPC   C3B  163   3.781   2.244   6.167 -0.0395  0.3455  0.0900
   17POPC   C4B  164   3.655   2.489   5.769 -0.1485 -0.1571 -0.1809
   18POPC   NC3  165   4.371   3.824   7.515  0.1705  0.1880  0.0638
   18POPC   PO4  166   4.532   3.616   7.807 -0.1132 -0.0682 -0.0332
   18POPC   GL1  167   4.676   3.462   7.431 -0.0405 -0.2470 -0.3477
   18POPC   GL2  168   4.491   3.411   7.286 -0.2582 -0.1667 -0.0832
   18POPC   C1A  169   4.981   3.608   7.141 -0.0839 -0.0393  0.1840
   18POPC   D2A  170   5.323   3.847   6.817  0.0934 -0.0734 -0.0747
   18POPC   C3A  171   5.578   3.543   6.599  0.2414 -0.2294 -0.0119
   18POPC   C4A  172   5.677   3.104   6.306  0.1503 -0.1125  0.0672
   18POPC   C1B  173   4.544   3.629   6.960  0.1505 -0.0812  0.0924
   18POPC   C2B  174   4.339   3.962   6.837 -0.0296  0.2758  0.2318
   18POPC   C3B  175   4.273   4.242   6.398  0.0563  0.2261 -0.0740
   18POPC   C4B  176   4.450   4.619   6.150  0.0297  0.0139  0.2493
   19POPC   NC3  177   0.172   0.049   8.119 -0.0050  0.0891 -0.1469
   19POPC   PO4  178  -0.013  -0.185   7.864  0.0664  0.1194 -0.2800
   19POPC   GL1  179   0.068  -0.208   7.454  0.0531 -0.4236  0.1055
   19POPC   GL2  180  -0.199  -0.116   7.447  0.0195 -0.2059  0.3527
   19POPC   C1A  181   0.172  -0.300   7.086  0.1623  0.0870  0.2696
   19POPC   D2A  182   0.352  -0.572   6.691  0.0981  0.2213  0.1912
   19POPC   C3A  183   0.741  -0.638   6.326 -0.2969 -0.0021 -0.4246
   19POPC   C4A  184   0.899  -0.453   5.864 -0.0409 -0.0802 -0.2035
   19POPC   C1B  185  -0.375  -0.317   7.195  0.0813  0.0288 -0.2716
   19POPC   C2B  186  -0.441  -0.080   6.832  0.2447  0.0183  0.2590
   19POPC   C3B  187  -0.484   0.243   6.460  0.2199  0.2439 -0.1021
   19POPC   C4B  188  -0.723   0.583   6.119 -0.1529  0.0811 -0.0531
   20POPC   NC3  189   2.297   1.813   7.627  0.0994 -0.1426  0.1785
   20POPC   PO4  190   2.322   2.199   7.563  0.0168 -0.0295  0.2268
   20POPC   GL1  191   2.102   2.054   7.158  0.3948 -0.3126 -0.0166
   20POPC   GL2  192   2.432   1.862   7.157 -0.0241  0.0375 -0.2316
   20POPC   C1A  193   1.924   1.983   6.755  0.3531 -0.2740  0.0231
   20POPC   D2A  194   1.726   1.735   6.379  0.2277  0.1834  0.1274
   20POPC   C3A  195   1.725   1.908   5.987 -0.1265 -0.0891 -0.2864
   20POPC   C4A  196   1.780   2.013   5.468 -0.2306 -0.3896 -0.0532
   20POPC   C1B  197   2.582   1.741   6.869 -0.2400 -0.1325 -0.3487
   20POPC   C2B  198   2.787   1.587   6.528  0.0753 -0.0275 -0.2510
   20POPC   C3B  199   2.609   1.450   6.105  0.0966  0.0134  0.0857
   20POPC   C4B  200   2.350   1.480   5.654  0.2280 -0.1351  0.1498
   21POPC   NC3  201   0.936   2.118   7.901  0.0998 -0.0212  0.0353
   21POPC   PO4  202   0.841   1.937   7.567  0.2288 -0.1024 -0.0954
   21POPC   GL1  203   0.470   2.016   7.388  0.0220 -0.2890 -0.2820
   21POPC   GL2  204   0.660   2.159   7.236  0.2563  0.2333 -0.3206
   21POPC   C1A  205   0.228   2.022   7.030 -0.0040 -0.1804 -0.3499
   21POPC   D2A  206   0.121   1.751   6.648 -0.3780  0.3477  0.2833
   21POPC   C3A  207   0.153   1.736   6.213 -0.0016 -0.1643  0.0470
   21POPC   C4A  208  -0.039   1.826   5.744 -0.2085  0.2204  0.1205
   21POPC   C1B  209   0.639   2.460   7.084  0.2842  0.0167 -0.0187
   21POPC   C2B  210   0.500   2.836   6.954  0.1875 -0.0194  0.1374
   21POPC   C3B  211   0.318   3.223   6.744  0.1801  0.0777  0.1047
   21POPC   C4B  212   0.321   3.533   6.413  0.0164 -0.0091 -0.1255
   22POPC   NC3  213   2.563   4.459   7.373 -0.2437  0.0300  0.1986
   22POPC   PO4  214   2.559   4.089   7.430  0.4504  0.2795  0.0155
   22POPC   GL1  215   2.530   3.798   7.101  0.1722 -0.0606 -0.0966
   22POPC   GL2  216   2.233   3.804   7.162  0.3522 -0.0389  0.1237
   22POPC   C1A  217   2.715   3.502   6.819  0.1467 -0.2258  0.0805
   22POPC   D2A  218   3.107   3.570   6.446 -0.0173 -0.2494 -0.1207
   22POPC   C3A  219   2.887   3.895   6.297  0.2857 -0.1345 -0.0856
   22POPC   C4A  220   2.596   3.936   5.972 -0.0716  0.4276  0.0092
   22POPC   C1B  221   2.005   3.926   6.884 -0.2451  0.1097  0.0318
   22POPC   C2B  222   1.831   4.285   6.947  0.2957  0.0347  0.1046
   22POPC   C3B  223   1.459   4.481   6.825  0.2207  0.1615  0.2223
   22POPC   C4B  224   1.170   4.534   6.466 -0.2970  0.0236  0.0234
   23POPC   NC3  225   4.207   3.291   8.103  0.1353  0.1050 -0.2913
   23POPC   PO4  226   3.900   3.112   7.906 -0.1427  0.0095  0.0857
   23POPC   GL1  227   3.790   3.154   7.498 -0.3971  0.0762  0.2758
   23POPC   GL2  228   4.025   3.115   7.366  0.1686  0.2659 -0.0539
   23POPC   C1A  229   3.588   3.404   7.156 -0.1106 -0.0250 -0.4421
   23POPC   D2A  230   3.644   3.547   6.670  0.2684  0.0288 -0.4341
   23POPC   C3A  231   3.852   3.480   6.271 -0.3058 -0.2104  0.1839
   23POPC   C4A  232   4.067   3.532   5.876  0.1902  0.1687  0.1758
   23POPC   C1B  233   4.115   3.348   7.103 -0.3131  0.0496  0.2450
   23POPC   C2B  234   4.139   3.502   6.724 -0.1093 -0.2883  0.1408
   23POPC   C3B  235   4.270   3.677   6.259  0.0283  0.0169 -0.1327
   23POPC   C4B  236   3.967   4.020   6.043 -0.0257  0.0914 -0.1890
   24POPC   NC3  237   0.987   3.563   8.077  0.1279 -0.1321 -0.0414
   24POPC   PO4  238   0.876   3.867   7.866  0.1279  0.0910  0.0183
   24POPC   GL1  239   0.974   3.721   7.368 -0.3217 -0.2308 -0.0437
   24POPC   GL2  240   0.785   3.956   7.363 -0.1421 -0.1783 -0.0175
   24POPC   C1A  241   1.283   3.773   7.061 -0.1661  0.1120  0.1882
   24POPC   D2A  242   1.317   3.997   6.707  0.1494 -0.1184  0.0289
   24POPC   C3A  243   1.710   4.026   6.464 -0.0780 -0.0610 -0.0231
   24POPC   C4A  244   2.124   3.843   6.228 -0.3312 -0.1497  0.0256
   24POPC   C1B  245   0.674   4.208   7.100 -0.4495 -0.0122 -0.0557
   24POPC   C2B  246   0.738   4.283   6.720 -0.2634 -0.0587  0.1248
   24POPC   C3B  247   0.793   4.425   6.191  0.0047  0.1636 -0.0894
   24POPC   C4B  248   0.763   4.815   5.772 -0.0004  0.2067  0.0458
   25POPC   NC3  249   3.539   4.476   7.595  0.3003  0.0276 -0.1889
   25POPC   PO4  250   3.186   4.650   7.695  0.1774  0.3189 -0.0009
   25POPC   GL1  251   3.146   4.830   7.261 -0.2934 -0.0583  0.0267
   25POPC   GL2  252   3.007   4.633   7.258  0.1960  0.0457  0.0321
   25POPC   C1A  253   3.140   4.995   6.903  0.1918  0.0124  0.1232
   25POPC   D2A  254   3.024   5.201   6.479  0.2850 -0.1263  0.0292
   25POPC   C3A  255   2.657   5.310   6.148  0.0085 -0.3227 -0.1695
   25POPC   C4A  256   2.204   5.460   5.983  0.1640  0.1408 -0.1926
   25POPC   C1B  257   2.783   4.684   7.000  0.2808  0.0164 -0.0856
   25POPC   C2B  258   2.713   4.807   6.571 -0.1087  0.1703 -0.1524
   25POPC   C3B  259   2.489   4.796   6.055 -0.2943  0.0964  0.3031
   25POPC   C4B  260   2.474   5.152   5.703 -0.0425  0.1081  0.1242
   26POPC   NC3  261   3.355   2.987   7.299  0.4667  0.1755  0.0548
   26POPC   PO4  262   2.981   2.814   7.307 -0.3303  0.0961 -0.2654
   26POPC   GL1  263   3.013   2.668   6.891  0.1153 -0.0525 -0.1162
   26POPC   GL2  264   2.789   2.771   6.811 -0.2594  0.1005  0.0603
   26POPC   C1A  265   3.055   2.655   6.408 -0.2646 -0.2387 -0.1917
   26POPC   D2A  266   3.056   2.360   5.976 -0.3331  0.1412  0.2020
   26POPC   C3A  267   3.202   2.533   5.484 -0.4116  0.4454 -0.0510
   26POPC   C4A  268   3.582   2.825   5.343 -0.0996 -0.0573  0.1142
   26POPC   C1B  269   2.653   2.663   6.505 -0.0608  0.0561  0.1832
   26POPC   C2B  270   2.608   2.539   6.111 -0.1478  0.1889  0.2967
   26POPC   C3B  271   2.670   2.584   5.662  0.1157 -0.0019  0.2045
   26POPC   C4B  272   2.791   2.780   5.275  0.1700  0.5441  0.2221
   27POPC   NC3  273   0.754   4.316   7.607  0.0390 -0.0841  0.2322
   27POPC   PO4  274   0.459   4.546   7.673  0.2535  0.1086  0.0568
   27POPC   GL1  275   0.417   4.560   7.250 -0.1635  0.2100 -0.1449
   27POPC   GL2  276   0.400   4.872   7.332  0.0924 -0.3791  0.3460
   27POPC   C1A  277   0.394   4.600   6.856  0.2606  0.0492 -0.1418
   27POPC   D2A  278   0.307   4.422   6.413  0.0506  0.1563  0.1106
   27POPC   C3A  279   0.243   4.021   6.208 -0.0356  0.1432  0.0348
   27POPC   C4A  280  -0.049   3.860   5.810  0.3765 -0.1844 -0.2120
   27POPC   C1B  281   0.373   5.040   6.979 -0.1490 -0.0582  0.0273
   27POPC   C2B  282   0.284   4.987   6.538  0.0675  0.1670 -0.0237
   27POPC   C3B  283   0.318   4.967   6.037  0.1348  0.2428  0.0528
   27POPC   C4B  284   0.056   4.930   5.647 -0.0174 -0.1521  0.2360
   28POPC   NC3  285   0.830   0.811   7.959 -0.3246 -0.2061 -0.0224
   28POPC   PO4  286   0.732   1.133   7.737 -0.2309 -0.0797 -0.1029
   28POPC   GL1  287   0.786   1.267   7.310 -0.0259 -0.1936  0.3073
   28POPC   GL2  288   0.645   1.495   7.366  0.1115 -0.1987  0.1471
   28POPC   C1A  289   0.724   1.294   6.928 -0.4648 -0.0779 -0.0258
   28POPC   D2A  290   0.767   1.186   6.460 -0.3265 -0.3905  0.0298
   28POPC   C3A  291   0.603   1.510   6.130 -0.0811  0.0054  0.0916
   28POPC   C4A  292   0.462   1.788   5.724 -0.1883  0.0065  0.7429
   28POPC   C1B  293   0.545   1.729   7.075 -0.0642 -0.0679  0.2363
   28POPC   C2B  294   0.653   2.013   6.760  0.1778  0.0505  0.2905
   28POPC   C3B  295   0.850   2.355   6.479  0.5562 -0.2414  0.0966
   28POPC   C4B  296   1.042   2.629   6.167 -0.0397 -0.2655  0.0376
   29POPC   NC3  297   2.680   3.042   7.704 -0.0274 -0.1492 -0.1978
   29POPC   PO4  298   3.034   3.236   7.547 -0.0968  0.0813  0.0306
   29POPC   GL1  299   3.047   3.335   7.184 -0.1327 -0.2730 -0.3459
   29POPC   GL2  300   3.026   3.108   6.950  0.3390 -0.2780  0.0518
   29POPC   C1A  301   3.212   3.758   7.034  0.0591 -0.0196 -0.0829
   29POPC   D2A  302   3.405   3.950   6.626 -0.1129  0.3177 -0.3161
   29POPC   C3A  303   3.438   3.855   6.160  0.4000 -0.1410 -0.1046
   29POPC   C4A  304   3.640   3.760   5.774 -0.3933 -0.1741 -0.2301
   29POPC   C1B  305   2.908   3.128   6.604  0.2256 -0.4202  0.1437
   29POPC   C2B  306   2.773   3.052   6.190  0.3502  0.4318  0.0985
   29POPC   C3B  307   2.559   3.136   5.716  0.2102  0.0754  0.0542
   29POPC   C4B  308   2.466   3.100   5.209  0.0945  0.0887 -0.3192
   30POPC   NC3  309   0.629   2.994   7.860 -0.3587 -0.0132  0.2194
   30POPC   PO4  310   0.367   2.728   7.950 -0.0455  0.1841 -0.0637
   30POPC   GL1  311   0.152   2.712   7.543 -0.1284  0.0964  0.2200
   30POPC   GL2  312   0.277   2.408   7.497 -0.6339  0.5386 -0.1132
   30POPC   C1A  313  -0.024   2.852   7.202  0.2758 -0.3027  0.0290
   30POPC   D2A  314  -0.185   3.000   6.791 -0.1453  0.0140  0.1693
   30POPC   C3A  315   0.192   2.789   6.518 -0.4003  0.0344 -0.2637
   30POPC   C4A  316   0.488   2.601   6.167 -0.4003  0.0526 -0.1364
   30POPC   C1B  317   0.221   2.479   7.165  0.0419 -0.0529 -0.4795
   30POPC   C2B  318   0.176   2.399   6.785  0.0761  0.1676  0.1156
   30POPC   C3B  319   0.275   2.190   6.366 -0.1230  0.3023  0.3176
   30POPC   C4B  320   0.688   2.063   6.078 -0.1048  0.1005 -0.1313
   31POPC   NC3  321   1.481   0.239   7.907 -0.0953 -0.0298 -0.0817
   31POPC   PO4  322   1.749   0.465   7.691  0.0530 -0.1628  0.0321
   31POPC   GL1  323   1.703   0.687   7.305  0.0276 -0.2974  0.3422
   31POPC   GL2  324   1.402   0.583   7.301  0.0328 -0.1066  0.5128
   31POPC   C1A  325   1.770   0.402   6.966  0.0865 -0.1755 -0.0720
   31POPC   D2A  326   1.704   0.315   6.506  0.0333  0.0216 -0.0277
   31POPC   C3A  327   1.642  -0.039   6.178  0.1730  0.3418 -0.2079
   31POPC   C4A  328   1.323  -0.373   6.148 -0.1900 -0.2719 -0.2849
   31POPC   C1B  329   1.313   0.443   6.983  0.1697 -0.0136  0.1967
   31POPC   C2B  330   1.220   0.502   6.577 -0.1575 -0.3330 -0.0983
   31POPC   C3B  331   0.823   0.553   6.273 -0.0049  0.1965  0.1378
   31POPC   C4B  332   0.529   0.930   6.072  0.3332 -0.0646 -0.0407
   32POPC   NC3  333   3.142   1.791   7.462 -0.0322 -0.1429  0.0269
   32POPC   PO4  334   2.788   1.998   7.402 -0.3069  0.2469  0.2220
   32POPC   GL1  335   2.754   2.180   7.137  0.1347  0.1920  0.0519
   32POPC   GL2  336   2.972   2.339   7.089  0.1750  0.0771  0.4558
   32POPC   C1A  337   2.400   2.179   6.830  0.2784 -0.0028  0.2150
   32POPC   D2A  338   2.304   2.235   6.389 -0.2282 -0.0794  0.1561
   32POPC   C3A  339   1.811   2.221   6.365  0.0529  0.2368 -0.1941
   32POPC   C4A  340   1.327   2.134   6.381 -0.0699  0.2170  0.1899
   32POPC   C1B  341   2.819   2.314   6.708 -0.1114 -0.1539 -0.1292
   32POPC   C2B  342   2.806   2.108   6.344  0.0589 -0.0260 -0.0654
   32POPC   C3B  343   2.668   2.044   5.842  0.0252  0.2527 -0.7062
   32POPC   C4B  344   2.813   2.183   5.354 -0.1371  0.1052 -0.0210
   33POPC   NC3  345   2.748   2.492   7.568  0.1777 -0.0506 -0.0220
   33POPC   PO4  346   3.186   2.384   7.605  0.1698 -0.0953 -0.2638
   33POPC   GL1  347   3.332   2.173   7.257  0.1159  0.0271 -0.0493
   33POPC   GL2  348   3.465   2.493   7.232  0.0520 -0.2081 -0.0642
   33POPC   C1A  349   3.173   2.050   6.802  0.3097  0.0464  0.0750
   33POPC   D2A  350   3.302   2.157   6.343 -0.2485  0.1981  0.0215
   33POPC   C3A  351   3.108   1.860   5.989 -0.0324  0.0397  0.3070
   33POPC   C4A  352   2.838   1.592   5.641  0.4796  0.2322  0.1742
   33POPC   C1B  353   3.403   2.716   6.951 -0.0089  0.0233  0.5263
   33POPC   C2B  354   3.362   3.003   6.689 -0.1144  0.1571  0.2001
   33POPC   C3B  355   3.385   3.212   6.247  0.1781 -0.2312 -0.0361
   33POPC   C4B  356   3.338   3.357   5.825  0.0137  0.0125  0.1352
   34POPC   NC3  357   2.779   0.911   7.841  0.0308  0.4279 -0.0385
   34POPC   PO4  358   2.606   1.071   7.487 -0.0846 -0.1913 -0.2254
   34POPC   GL1  359   2.868   0.996   7.148 -0.2344  0.0771  0.0288
   34POPC   GL2  360   3.096   1.061   7.262  0.0219 -0.1178  0.0181
   34POPC   C1A  361   2.896   1.119   6.736 -0.1957  0.1199 -0.2525
   34POPC   D2A  362   2.989   1.174   6.207 -0.2189 -0.1785 -0.3459
   34POPC   C3A  363   2.751   1.116   5.773  0.2239 -0.3136 -0.1947
   34POPC   C4A  364   2.680   1.288   5.293  0.0538 -0.1333  0.3372
   34POPC   C1B  365   3.283   0.967   6.970 -0.1260  0.2292 -0.1965
   34POPC   C2B  366   3.351   1.103   6.573  0.1478  0.0712  0.1109
   34POPC   C3B  367   3.621   1.123   6.194  0.2778 -0.0359 -0.0784
   34POPC   C4B  368   3.655   1.008   5.718  0.0894  0.1377 -0.0429
   35POPC   NC3  369   2.350   0.020   7.804  0.2164 -0.3578  0.1721
   35POPC   PO4  370   2.163   0.267   7.534  0.0305 -0.1777 -0.1878
   35POPC   GL1  371   2.225   0.199   7.135  0.0691 -0.2588  0.5249
   35POPC   GL2  372   2.276   0.419   7.058  0.0604 -0.1235 -0.0261
   35POPC   C1A  373   2.347  -0.147   6.926  0.1751 -0.3136  0.0659
   35POPC   D2A  374   2.406  -0.521   6.672  0.2180  0.1553  0.2431
   35POPC   C3A  375   2.877  -0.501   6.780  0.0574  0.3245  0.1686
   35POPC   C4A  376   3.228  -0.217   6.890  0.1669 -0.0083 -0.3596
   35POPC   C1B  377   2.270   0.320   6.725 -0.1177  0.0990  0.0608
   35POPC   C2B  378   2.140   0.060   6.457  0.3438  0.0125  0.2442
   35POPC   C3B  379   2.108  -0.193   6.016 -0.0441 -0.1927 -0.1101
   35POPC   C4B  380   2.175  -0.375   5.542 -0.0120 -0.1972 -0.0018
   36CER6   NOH  381   3.002   1.653   4.150  0.1305 -0.1590 -0.1251
   36CER6    OH  382   3.336   1.680   4.033  0.2807 -0.1743 -0.0341
   36CER6   GLA  383   2.802   1.512   4.293  0.3480  0.1866 -0.0630
   36CER6   GLB  384   3.247   1.865   4.232  0.0195 -0.0807 -0.1685
   36CER6   C1A  385   2.962   1.382   4.854 -0.2678  0.0699 -0.1276
   36CER6   C2A  386   3.153   1.363   5.356 -0.0611  0.1227  0.0592
   36CER6   C1B  387   3.411   2.001   4.688 -0.1127  0.3994  0.3132
   36CER6   C2B  388   3.721   1.909   5.137 -0.2918  0.1280  0.0769
   37CER6   NOH  389   3.604   3.937   4.035  0.0768 -0.3373  0.0510
   37CER6    OH  390   3.960   3.815   3.992  0.2408  0.0864 -0.2938
   37CER6   GLA  391   3.322   4.074   4.034 -0.0890  0.1152  0.1022
   37CER6   GLB  392   3.695   3.686   4.076 -0.1636  0.0110 -0.3877
   37CER6   C1A  393   3.138   4.009   4.612 -0.0591  0.3222 -0.0241
   37CER6   C2A  394   2.806   3.770   4.984  0.2036 -0.0688  0.1490
   37CER6   C1B  395   3.737   3.438   4.473  0.2045 -0.4113  0.2799
   37CER6   C2B  396   3.567   3.244   4.957 -0.2145  0.1259 -0.2812
   38CER6   NOH  397   4.439   1.289   4.227  0.0504  0.2476 -0.1571
   38CER6    OH  398   4.323   1.256   3.859 -0.0937  0.1027  0.2596
   38CER6   GLA  399   4.272   1.476   4.366 -0.1565  0.0443 -0.0164
   38CER6   GLB  400   4.422   1.055   4.053  0.0022 -0.0170  0.4963
   38CER6   C1A  401   4.379   1.241   4.873 -0.1022  0.0746  0.2179
   38CER6   C2A  402   4.551   1.317   5.350  0.1005  0.3385 -0.3288
   38CER6   C1B  403   4.277   0.955   4.474  0.2749 -0.0648 -0.1339
   38CER6   C2B  404   4.012   0.671   4.874  0.2764  0.2282  0.2853
   39CER6   NOH  405   2.554   1.465   3.899 -0.3701  0.0169 -0.1387
   39CER6    OH  406   2.743   1.168   3.724 -0.2424  0.2934  0.0753
   39CER6   GLA  407   2.462   1.673   4.108 -0.0129  0.1204 -0.0988
   39CER6   GLB  408   2.650   1.219   4.006  0.0201  0.0109  0.3057
   39CER6   C1A  409   2.620   1.655   4.652  0.1490 -0.0903 -0.0714
   39CER6   C2A  410   2.654   1.759   5.181  0.0034  0.0864 -0.2252
   39CER6   C1B  411   2.656   1.081   4.433 -0.0431  0.1037 -0.0052
   39CER6   C2B  412   2.713   0.942   4.964  0.2352  0.1432 -0.1790
   40CER6   NOH  413   4.126   3.253   4.264 -0.3633 -0.0243  0.1059
   40CER6    OH  414   4.095   3.424   3.965 -0.3017  0.2725 -0.5870
   40CER6   GLA  415   4.025   3.084   4.479  0.1431  0.0565 -0.2041
   40CER6   GLB  416   4.193   3.543   4.242 -0.4564 -0.2178  0.2674
   40CER6   C1A  417   4.104   3.282   5.017  0.0372 -0.1707  0.0691
   40CER6   C2A  418   3.812   3.278   5.436 -0.0116  0.2027  0.0030
   40CER6   C1B  419   4.485   3.509   4.538 -0.2380 -0.1231 -0.3111
   40CER6   C2B  420   4.720   3.541   5.030 -0.1373 -0.0430 -0.1829
   41CER6   NOH  421   1.384   1.570   4.151  0.3135 -0.1015 -0.1575
   41CER6    OH  422   1.673   1.387   4.174  0.5398 -0.1062 -0.1421
   41CER6   GLA  423   1.182   1.792   4.165 -0.0894 -0.3090  0.5670
   41CER6   GLB  424   1.502   1.457   4.412  0.0676  0.0426 -0.1849
   41CER6   C1A  425   0.821   1.535   4.599 -0.0240  0.2060  0.0903
   41CER6   C2A  426   0.898   1.078   4.886  0.0941 -0.2219  0.0539
   41CER6   C1B  427   1.254   1.745   4.722  0.1126  0.0525 -0.1234
   41CER6   C2B  428   0.864   1.625   5.083 -0.0738 -0.3542 -0.1473
   42CER6   NOH  429   4.342   2.236   4.316  0.1139  0.1005  0.4001
   42CER6    OH  430   4.311   1.880   4.196 -0.4955  0.1615  0.3686
   42CER6   GLA  431   4.546   2.394   4.294 -0.0163 -0.0506  0.0721
   42CER6   GLB  432   4.131   2.022   4.364 -0.0998  0.2073 -0.2044
   42CER6   C1A  433   4.664   2.314   4.851 -0.3716 -0.0598  0.0576
   42CER6   C2A  434   4.591   2.509   5.329  0.0454  0.3306  0.2281
   42CER6   C1B  435   3.907   2.243   4.709  0.1697 -0.2295 -0.1521
   42CER6   C2B  436   3.477   2.376   5.074 -0.0723 -0.1004 -0.1415
   43CER6   NOH  437   0.448   4.127   4.057  0.4971 -0.0657 -0.0410
   43CER6    OH  438   0.525   4.436   3.808  0.0318 -0.0663 -0.5792
   43CER6   GLA  439   0.615   3.930   4.011 -0.0025  0.0032  0.0575
   43CER6   GLB  440   0.384   4.399   4.048  0.0742  0.3208 -0.0396
   43CER6   C1A  441   0.526   3.664   4.554  0.2057 -0.1796  0.1295
   43CER6   C2A  442   0.667   3.314   4.838 -0.0570  0.0019 -0.3114
   43CER6   C1B  443   0.398   4.272   4.538  0.3018 -0.2118 -0.2675
   43CER6   C2B  444   0.381   4.160   5.102  0.1516  0.0742 -0.1017
   44CER6   NOH  445   4.184   4.464   3.872 -0.1684 -0.1338  0.2424
   44CER6    OH  446   3.980   4.288   3.649 -0.0879 -0.0757  0.0777
   44CER6   GLA  447   4.210   4.751   3.893 -0.0979 -0.1100 -0.2619
   44CER6   GLB  448   4.170   4.192   3.835 -0.5789  0.0724  0.1848
   44CER6   C1A  449   4.040   4.757   4.461 -0.3061  0.2753  0.0027
   44CER6   C2A  450   3.945   4.680   5.010  0.4304  0.0393 -0.0873
   44CER6   C1B  451   4.463   4.029   4.151  0.0779  0.1875  0.0942
   44CER6   C2B  452   4.483   4.067   4.721 -0.0140  0.0626  0.3185
   45CER6   NOH  453   2.409   3.113   4.086 -0.0759 -0.0141  0.1421
   45CER6    OH  454   2.343   3.399   3.826  0.0532 -0.3127  0.0714
   45CER6   GLA  455   2.431   2.851   4.179  0.2070  0.0834  0.0172
   45CER6   GLB  456   2.558   3.175   3.864 -0.0625 -0.0533  0.0267
   45CER6   C1A  457   2.736   2.867   4.721 -0.0186 -0.0109 -0.1068
   45CER6   C2A  458   3.016   2.450   4.916 -0.0447  0.0619  0.1085
   45CER6   C1B  459   2.806   3.169   4.301  0.0114  0.0097  0.2023
   45CER6   C2B  460   3.257   3.251   4.475  0.2450  0.1090  0.0764
   46POPC   NC3  461   3.358   1.567   3.624 -0.0184 -0.1370 -0.0748
   46POPC   PO4  462   3.205   1.298   3.726  0.1667  0.3908  0.0494
   46POPC   GL1  463   3.226   1.274   4.153 -0.0346 -0.2916  0.2492
   46POPC   GL2  464   3.055   1.115   4.186 -0.0450  0.2696  0.2335
   46POPC   C1A  465   3.417   1.438   4.500 -0.0077 -0.1347 -0.2092
   46POPC   D2A  466   3.450   1.491   4.990  0.0707 -0.0189 -0.0961
   46POPC   C3A  467   3.666   1.401   5.410  0.0731 -0.1685  0.1135
   46POPC   C4A  468   3.432   1.487   5.894  0.1277  0.3536  0.0456
   46POPC   C1B  469   3.076   1.009   4.510 -0.2227  0.1075  0.1729
   46POPC   C2B  470   3.236   0.794   4.759  0.1289  0.0780  0.0208
   46POPC   C3B  471   3.532   0.447   4.948  0.0697 -0.0550  0.1805
   46POPC   C4B  472   3.529   0.091   5.351 -0.0644  0.0476  0.0358
   47POPC   NC3  473   2.038   3.818   4.444 -0.0713 -0.1542  0.1369
   47POPC   PO4  474   2.417   4.010   4.412 -0.0503 -0.1166 -0.1210
   47POPC   GL1  475   2.320   4.027   4.848 -0.2463  0.0031 -0.1231
   47POPC   GL2  476   2.060   4.067   4.865  0.3648 -0.1903  0.3605
   47POPC   C1A  477   2.569   4.098   5.235  0.0551 -0.2059 -0.1153
   47POPC   D2A  478   2.916   3.906   5.589  0.0860 -0.3113 -0.0964
   47POPC   C3A  479   3.132   4.129   5.905  0.2570 -0.1549  0.2543
   47POPC   C4A  480   3.098   4.327   6.434  0.0275  0.1652 -0.2876
   47POPC   C1B  481   1.899   4.126   5.150 -0.0689  0.2354  0.2235
   47POPC   C2B  482   1.780   3.798   5.393  0.1803 -0.3060 -0.0460
   47POPC   C3B  483   1.402   3.787   5.656  0.1589  0.0685  0.1569
   47POPC   C4B  484   1.161   3.655   6.077  0.1670 -0.2266 -0.0848
   48POPC   NC3  485   3.185   2.071   3.780 -0.1220  0.0189  0.2799
   48POPC   PO4  486   3.570   2.006   3.836 -0.2061  0.1188  0.1337
   48POPC   GL1  487   3.623   2.116   4.268 -0.0622  0.0767  0.2893
   48POPC   GL2  488   3.685   1.820   4.348 -0.2027  0.1493  0.0910
   48POPC   C1A  489   3.523   2.473   4.525  0.0276  0.2610  0.0054
   48POPC   D2A  490   3.787   2.789   4.863 -0.1916 -0.0208  0.0582
   48POPC   C3A  491   4.076   2.847   5.258 -0.0319 -0.0814  0.2074
   48POPC   C4A  492   4.191   2.598   5.630  0.2288 -0.0771  0.1825
   48POPC   C1B  493   3.770   1.695   4.708 -0.3063 -0.0495  0.3181
   48POPC   C2B  494   3.909   1.412   4.938 -0.3091 -0.0920  0.0009
   48POPC   C3B  495   3.986   1.034   5.267 -0.0173 -0.0053 -0.1458
   48POPC   C4B  496   3.762   0.592   5.417 -0.0784  0.1901  0.1439
   49POPC   NC3  497   1.721   2.822   3.785 -0.1270 -0.0996  0.1038
   49POPC   PO4  498   1.933   3.165   3.951  0.0437 -0.1819 -0.1220
   49POPC   GL1  499   2.141   3.368   4.341 -0.1703  0.3588 -0.2530
   49POPC   GL2  500   1.886   3.326   4.368 -0.4102  0.0628  0.1426
   49POPC   C1A  501   2.291   3.047   4.531  0.2172  0.0499  0.3595
   49POPC   D2A  502   2.265   2.778   4.908 -0.2779 -0.2209 -0.5719
   49POPC   C3A  503   1.961   2.815   5.283 -0.2762 -0.0854 -0.3526
   49POPC   C4A  504   1.770   2.485   5.591  0.0165 -0.4012  0.0076
   49POPC   C1B  505   1.707   3.270   4.712  0.2814  0.3207 -0.0674
   49POPC   C2B  506   1.754   3.259   5.129  0.0852 -0.3060  0.4851
   49POPC   C3B  507   1.991   3.305   5.549 -0.2828 -0.1873 -0.3104
   49POPC   C4B  508   2.289   3.549   5.893  0.1918 -0.1740 -0.0670
   50POPC   NC3  509   2.614   0.440   3.699  0.0037  0.2039  0.2388
   50POPC   PO4  510   2.781   0.088   3.788  0.0809  0.0214  0.0006
   50POPC   GL1  511   2.903  -0.001   4.174  0.2373 -0.0212 -0.4386
   50POPC   GL2  512   3.193   0.049   4.167  0.2008  0.2179 -0.1034
   50POPC   C1A  513   2.852  -0.004   4.604  0.0344  0.0964 -0.2954
   50POPC   D2A  514   2.932  -0.117   5.076  0.0162 -0.2678  0.0704
   50POPC   C3A  515   3.106  -0.033   5.511 -0.1348 -0.2197 -0.1472
   50POPC   C4A  516   3.368   0.171   5.877 -0.0924  0.0874  0.1380
   50POPC   C1B  517   3.325  -0.176   4.389  0.3503 -0.0335  0.1996
   50POPC   C2B  518   3.607  -0.411   4.619  0.0285  0.0040 -0.1884
   50POPC   C3B  519   3.798  -0.294   5.083 -0.2333  0.1499 -0.0106
   50POPC   C4B  520   3.569  -0.323   5.590  0.0588  0.1436  0.1804
   51POPC   NC3  521   3.737   0.279   4.021 -0.1685 -0.1640 -0.1803
   51POPC   PO4  522   3.741  -0.108   3.976  0.1088  0.3137  0.1481
   51POPC   GL1  523   3.931  -0.425   4.291 -0.0690 -0.0099  0.0308
   51POPC   GL2  524   4.102  -0.187   4.364  0.0496  0.1202 -0.0988
   51POPC   C1A  525   4.051  -0.659   4.664  0.2326 -0.2216  0.0339
   51POPC   D2A  526   4.221  -0.687   5.089 -0.1979 -0.1616  0.0558
   51POPC   C3A  527   4.398  -0.986   5.433  0.0452  0.0775  0.0641
   51POPC   C4A  528   4.698  -1.136   5.754 -0.2801  0.1114 -0.1098
   51POPC   C1B  529   4.167  -0.136   4.740 -0.1866 -0.2657 -0.1685
   51POPC   C2B  530   4.303  -0.080   5.159  0.1575  0.1925 -0.2639
   51POPC   C3B  531   4.528  -0.437   5.403 -0.2531  0.1040 -0.0936
   51POPC   C4B  532   4.971  -0.621   5.524  0.4063  0.1470 -0.0460
   52POPC   NC3  533   3.468   2.537   3.933 -0.2087  0.1711  0.2753
   52POPC   PO4  534   3.071   2.548   3.855 -0.0091 -0.0029  0.0060
   52POPC   GL1  535   2.897   2.743   4.185  0.1741  0.1119 -0.0247
   52POPC   GL2  536   3.192   2.719   4.294 -0.1262 -0.1257 -0.4038
   52POPC   C1A  537   2.653   2.433   4.469 -0.1772  0.1653  0.4163
   52POPC   D2A  538   2.537   2.362   4.937  0.4256  0.2319  0.1429
   52POPC   C3A  539   2.331   2.415   5.346 -0.0873  0.0052 -0.0696
   52POPC   C4A  540   2.176   2.337   5.818  0.1860  0.1192 -0.2960
   52POPC   C1B  541   3.194   2.770   4.618 -0.0028 -0.0036  0.3306
   52POPC   C2B  542   3.205   2.870   5.014 -0.0509  0.5120 -0.2204
   52POPC   C3B  543   3.093   3.112   5.425  0.0444  0.4466 -0.5821
   52POPC   C4B  544   3.358   3.482   5.384  0.0538 -0.0347 -0.2868
   53POPC   NC3  545   1.446   4.171   4.249 -0.0439 -0.1642 -0.1532
   53POPC   PO4  546   1.886   4.150   4.169  0.0720  0.2284 -0.1292
   53POPC   GL1  547   2.092   4.360   4.504  0.0209  0.0742 -0.1880
   53POPC   GL2  548   1.810   4.287   4.574  0.1506  0.0586 -0.2808
   53POPC   C1A  549   2.263   4.479   4.915 -0.0355  0.2712 -0.0089
   53POPC   D2A  550   2.564   4.685   5.315 -0.0733 -0.1625 -0.0279
   53POPC   C3A  551   2.693   4.446   5.680 -0.1459  0.0839 -0.2532
   53POPC   C4A  552   2.651   4.363   6.187 -0.0629 -0.0341 -0.1354
   53POPC   C1B  553   1.582   4.227   4.847  0.1605 -0.1270 -0.2005
   53POPC   C2B  554   1.453   4.226   5.265 -0.0654 -0.1275  0.1520
   53POPC   C3B  555   1.186   4.437   5.654 -0.2708 -0.2445 -0.0788
   53POPC   C4B  556   1.216   4.800   6.005 -0.2095  0.2800  0.1905
   54POPC   NC3  557   2.182   2.103   4.120 -0.0240 -0.0338 -0.0976
   54POPC   PO4  558   2.106   2.480   3.986  0.2512 -0.0993 -0.2450
   54POPC   GL1  559   2.171   2.572   4.299 -0.1172  0.3376  0.0317
   54POPC   GL2  560   1.926   2.826   4.201  0.1720 -0.4675 -0.1468
   54POPC   C1A  561   2.008   2.447   4.697 -0.3237 -0.1857 -0.2946
   54POPC   D2A  562   1.678   2.471   5.106 -0.4169 -0.2809  0.0578
   54POPC   C3A  563   1.455   2.363   4.778  0.1322 -0.2283  0.2023
   54POPC   C4A  564   1.566   2.051   4.424  0.1851 -0.3835 -0.0460
   54POPC   C1B  565   1.814   2.853   4.524  0.0916  0.3775 -0.0268
   54POPC   C2B  566   1.520   2.902   4.826 -0.0263  0.0625 -0.0002
   54POPC   C3B  567   1.467   2.826   5.355 -0.0261  0.2437  0.0448
   54POPC   C4B  568   1.322   2.794   5.849 -0.0745  0.1469  0.2199
   55POPC   NC3  569   3.725   1.517   4.064  0.2050 -0.0783 -0.1364
   55POPC   PO4  570   3.852   1.179   3.987  0.0236 -0.1302  0.0019
   55POPC   GL1  571   3.796   0.966   4.353  0.0503 -0.0609  0.0551
   55POPC   GL2  572   3.888   1.286   4.474 -0.0729 -0.6587 -0.0699
   55POPC   C1A  573   3.661   0.627   4.461  0.1368 -0.1828 -0.2210
   55POPC   D2A  574   3.552   0.139   4.488  0.1533  0.0073 -0.2061
   55POPC   C3A  575   3.384  -0.046   4.878  0.3779 -0.3278  0.2656
   55POPC   C4A  576   3.264  -0.391   5.222  0.2848  0.2914  0.2396
   55POPC   C1B  577   3.674   1.091   4.696 -0.2912 -0.2979 -0.3568
   55POPC   C2B  578   3.539   0.980   5.064  0.2938 -0.3072  0.1188
   55POPC   C3B  579   3.297   0.836   5.421  0.2221 -0.1356 -0.2593
   55POPC   C4B  580   3.212   0.884   5.945  0.0660  0.0524 -0.3047
   56POPC   NC3  581   2.309   1.088   3.645 -0.0714  0.2982  0.1004
   56POPC   PO4  582   2.278   0.755   3.863  0.3020  0.0180  0.0929
   56POPC   GL1  583   2.068   0.671   4.250  0.2979  0.3548  0.2329
   56POPC   GL2  584   2.251   0.620   4.435  0.0757 -0.0050 -0.0413
   56POPC   C1A  585   1.803   0.709   4.606 -0.0336 -0.0489  0.1239
   56POPC   D2A  586   1.673   0.645   5.083 -0.0456 -0.1281 -0.1478
   56POPC   C3A  587   1.264   0.934   5.167  0.0257  0.0185  0.0412
   56POPC   C4A  588   0.959   1.177   5.434 -0.1154  0.0069 -0.0944
   56POPC   C1B  589   2.293   0.867   4.727 -0.0506 -0.3089  0.1617
   56POPC   C2B  590   2.336   1.259   4.902 -0.1249 -0.1133 -0.0002
   56POPC   C3B  591   2.065   1.556   5.238  0.2942 -0.0842  0.0567
   56POPC   C4B  592   1.839   1.494   5.697  0.1269 -0.1657  0.2366
   57POPC   NC3  593   0.796   3.601   3.532  0.0666 -0.0134  0.0688
   57POPC   PO4  594   1.142   3.694   3.748  0.0301  0.3093  0.1853
   57POPC   GL1  595   1.250   3.733   4.212  0.1752 -0.1856 -0.1034
   57POPC   GL2  596   1.066   3.836   4.360  0.0824  0.0052  0.2115
   57POPC   C1A  597   1.456   3.672   4.532 -0.2270  0.1211 -0.0412
   57POPC   D2A  598   1.691   3.792   4.913  0.2787 -0.1957 -0.1204
   57POPC   C3A  599   2.089   3.530   4.855  0.0877 -0.1242  0.1215
   57POPC   C4A  600   2.559   3.335   4.791  0.0427 -0.1539  0.3569
   57POPC   C1B  601   1.085   3.802   4.730  0.3465  0.0162  0.1655
   57POPC   C2B  602   1.159   3.836   5.153 -0.0721 -0.2175  0.2380
   57POPC   C3B  603   0.930   3.694   5.540  0.0301 -0.1743  0.0748
   57POPC   C4B  604   0.632   3.629   5.918  0.2456  0.0451  0.1416
   58POPC   NC3  605   1.835   1.030   3.983  0.0402 -0.3391 -0.2406
   58POPC   PO4  606   1.465   1.069   4.090  0.2628 -0.0934 -0.0830
   58POPC   GL1  607   1.500   0.970   4.453  0.1653 -0.2902 -0.0787
   58POPC   GL2  608   1.420   0.664   4.325 -0.1101 -0.0909  0.0996
   58POPC   C1A  609   1.437   1.193   4.822 -0.0693  0.0266 -0.0121
   58POPC   D2A  610   1.370   1.406   5.280 -0.1017  0.0588  0.1510
   58POPC   C3A  611   1.380   1.681   5.653 -0.0867  0.1659  0.3101
   58POPC   C4A  612   1.138   2.063   5.933  0.1447 -0.1120 -0.1399
   58POPC   C1B  613   1.169   0.460   4.534 -0.1397 -0.1043 -0.1050
   58POPC   C2B  614   1.171   0.340   4.940  0.1248  0.3950  0.4002
   58POPC   C3B  615   1.118   0.456   5.424 -0.0453 -0.0704  0.0754
   58POPC   C4B  616   0.903   0.793   5.768  0.0458  0.0040 -0.2375
   59POPC   NC3  617   4.172   1.647   3.897 -0.0265  0.1796  0.3120
   59POPC   PO4  618   4.568   1.729   3.881 -0.0895  0.3526  0.0213
   59POPC   GL1  619   4.759   1.662   4.152 -0.3023  0.2168  0.0719
   59POPC   GL2  620   4.720   1.966   4.247 -0.1355  0.1680 -0.2022
   59POPC   C1A  621   4.766   1.432   4.571 -0.0304  0.2162  0.3053
   59POPC   D2A  622   4.713   1.648   5.038 -0.3225 -0.2882  0.0867
   59POPC   C3A  623   4.821   2.079   5.274 -0.4410  0.0492 -0.2300
   59POPC   C4A  624   4.801   2.307   5.767 -0.1313 -0.1089  0.2867
   59POPC   C1B  625   4.527   1.837   4.555 -0.2572  0.0753  0.1466
   59POPC   C2B  626   4.274   1.846   4.831  0.1293 -0.1709 -0.1295
   59POPC   C3B  627   4.196   1.711   5.309  0.0783 -0.2645 -0.3745
   59POPC   C4B  628   4.180   1.424   5.700 -0.0445 -0.0154 -0.3117
   60POPC   NC3  629   2.593   2.406   3.978 -0.3394  0.1357 -0.0529
   60POPC   PO4  630   2.741   2.040   3.966  0.1871  0.3886 -0.1967
   60POPC   GL1  631   2.648   1.974   4.381  0.0734  0.2089  0.0968
   60POPC   GL2  632   2.922   1.946   4.485  0.0906  0.1301  0.1864
   60POPC   C1A  633   2.284   2.071   4.601 -0.0457  0.3453  0.0698
   60POPC   D2A  634   2.147   2.040   5.043 -0.0469 -0.2268 -0.4279
   60POPC   C3A  635   2.294   1.913   5.477  0.0258  0.4074  0.2655
   60POPC   C4A  636   2.259   1.850   5.973  0.1083 -0.1714  0.1798
   60POPC   C1B  637   2.944   1.990   4.847 -0.1785  0.2037 -0.0668
   60POPC   C2B  638   3.183   1.851   5.206 -0.0694  0.2749  0.0613
   60POPC   C3B  639   3.449   1.898   5.580  0.0951 -0.3538  0.0867
   60POPC   C4B  640   3.787   1.813   5.967 -0.0627  0.0889  0.0055
   61POPC   NC3  641   1.610   1.401   3.732  0.1179  0.0576  0.2968
   61POPC   PO4  642   1.996   1.451   3.747  0.2510  0.2089 -0.0610
   61POPC   GL1  643   2.070   1.461   4.148 -0.0352  0.0336 -0.0233
   61POPC   GL2  644   2.245   1.228   4.214  0.3525  0.0648 -0.2935
   61POPC   C1A  645   1.903   1.671   4.556  0.0359  0.0665  0.0240
   61POPC   D2A  646   1.641   1.783   4.990 -0.0288  0.0525  0.0751
   61POPC   C3A  647   1.315   2.031   5.239 -0.1168  0.1645  0.0776
   61POPC   C4A  648   0.811   2.048   5.359  0.0039 -0.4540  0.0332
   61POPC   C1B  649   1.987   1.161   4.555  0.2795  0.0409 -0.5629
   61POPC   C2B  650   1.886   1.148   4.966 -0.0475 -0.2953 -0.1994
   61POPC   C3B  651   1.700   1.091   5.461  0.0316  0.2920 -0.0162
   61POPC   C4B  652   1.748   1.055   5.895 -0.0503  0.0558 -0.2090
   62POPC   NC3  653   0.839   2.362   3.706 -0.0171 -0.0607  0.2184
   62POPC   PO4  654   1.092   2.257   3.966 -0.0031 -0.3610  0.1199
   62POPC   GL1  655   1.217   2.355   4.379  0.3811  0.0498  0.1004
   62POPC   GL2  656   1.100   2.090   4.505  0.1188 -0.0129  0.1586
   62POPC   C1A  657   1.012   2.592   4.625 -0.1922 -0.0052  0.0963
   62POPC   D2A  658   0.985   2.914   4.923  0.2538  0.0100  0.3368
   62POPC   C3A  659   0.945   2.893   5.414 -0.3377 -0.1511 -0.0607
   62POPC   C4A  660   0.942   3.183   5.854  0.2512  0.1958  0.2587
   62POPC   C1B  661   1.052   2.142   4.878  0.3489  0.3495 -0.0315
   62POPC   C2B  662   1.056   2.445   5.181 -0.1025 -0.6077 -0.1852
   62POPC   C3B  663   1.247   2.394   5.566  0.2379 -0.0577  0.0148
   62POPC   C4B  664   1.519   2.371   6.008  0.0039 -0.0473 -0.2635
   63POPC   NC3  665   3.216   0.550   3.472 -0.1618  0.0455 -0.1277
   63POPC   PO4  666   3.295   0.438   3.864 -0.1167  0.1896  0.1734
   63POPC   GL1  667   3.109   0.634   4.228 -0.0519  0.0924  0.1650
   63POPC   GL2  668   3.236   0.425   4.333 -0.1350 -0.2456  0.2389
   63POPC   C1A  669   2.819   0.631   4.521  0.3916  0.2263  0.0370
   63POPC   D2A  670   2.495   0.410   4.816  0.0996  0.1985 -0.0489
   63POPC   C3A  671   2.256   0.649   5.112 -0.2262 -0.1728 -0.0066
   63POPC   C4A  672   2.217   1.085   5.345  0.0536 -0.0755  0.1069
   63POPC   C1B  673   3.145   0.334   4.713  0.0882  0.2345 -0.0070
   63POPC   C2B  674   2.969   0.442   5.095 -0.0860 -0.0691  0.0956
   63POPC   C3B  675   2.978   0.481   5.558 -0.0706 -0.0795  0.0086
   63POPC   C4B  676   2.963   0.415   6.059 -0.0241  0.1733 -0.1413
   64POPC   NC3  677   0.930   1.027   3.946  0.0683 -0.1810 -0.1782
   64POPC   PO4  678   0.914   0.686   4.148  0.3788 -0.1135  0.2117
   64POPC   GL1  679   0.626   0.645   4.356 -0.3917 -0.2402  0.2967
   64POPC   GL2  680   0.531   0.308   4.278  0.3292  0.4763 -0.2248
   64POPC   C1A  681   0.625   0.613   4.803  0.1217  0.1643  0.1522
   64POPC   D2A  682   0.785   0.799   5.271 -0.2807  0.0838  0.0642
   64POPC   C3A  683   0.428   1.019   5.582 -0.1037 -0.1676  0.1634
   64POPC   C4A  684   0.160   1.342   5.829  0.1356 -0.2548  0.2497
   64POPC   C1B  685   0.328   0.242   4.557  0.0413  0.0249  0.1433
   64POPC   C2B  686   0.151   0.151   4.907 -0.1923  0.3392  0.0424
   64POPC   C3B  687   0.206   0.047   5.370  0.0766 -0.0101  0.2806
   64POPC   C4B  688   0.292  -0.180   5.819  0.1328 -0.1063 -0.0579
   65POPC   NC3  689   4.485   2.225   3.869  0.2165  0.1675  0.3334
   65POPC   PO4  690   4.433   2.616   3.868 -0.0494 -0.1274  0.0851
   65POPC   GL1  691   4.690   2.869   4.129 -0.1960 -0.0723 -0.1459
   65POPC   GL2  692   4.525   2.911   4.275  0.2290  0.1442  0.1886
   65POPC   C1A  693   4.992   2.711   4.489 -0.3977  0.2258  0.0546
   65POPC   D2A  694   5.090   2.535   4.915  0.3399  0.3947  0.0161
   65POPC   C3A  695   5.121   2.549   5.354 -0.0482 -0.3742 -0.0275
   65POPC   C4A  696   5.317   2.479   5.744  0.1868  0.0990  0.1200
   65POPC   C1B  697   4.485   2.730   4.587 -0.2596 -0.3208  0.2895
   65POPC   C2B  698   4.254   2.576   4.877 -0.1386  0.0496  0.2564
   65POPC   C3B  699   4.160   2.283   5.162 -0.0638 -0.0682 -0.0391
   65POPC   C4B  700   3.958   2.101   5.537  0.4922 -0.0192  0.0354
   66POPC   NC3  701   0.314   0.510   3.532 -0.0723  0.1549 -0.0624
   66POPC   PO4  702   0.090   0.484   3.884  0.5250  0.1433  0.2410
   66POPC   GL1  703   0.169   0.634   4.270 -0.2363 -0.0954  0.0728
   66POPC   GL2  704  -0.037   0.468   4.401 -0.1861  0.0128  0.1335
   66POPC   C1A  705   0.322   0.943   4.607 -0.0178  0.2430  0.0451
   66POPC   D2A  706   0.430   1.170   5.016  0.3845 -0.2258 -0.3739
   66POPC   C3A  707   0.501   1.475   5.374  0.4120 -0.0518 -0.0635
   66POPC   C4A  708   0.904   1.625   5.618  0.1854 -0.2776 -0.1696
   66POPC   C1B  709  -0.019   0.545   4.731 -0.1661  0.2939  0.1248
   66POPC   C2B  710  -0.176   0.447   5.185  0.0369  0.2163 -0.1011
   66POPC   C3B  711  -0.410   0.209   5.568  0.0556 -0.3966 -0.2343
   66POPC   C4B  712  -0.618   0.038   6.041  0.4299 -0.1758  0.1203
   67POPC   NC3  713   3.128   3.900   3.584  0.3260  0.0088  0.1156
   67POPC   PO4  714   3.221   3.638   3.860  0.2816  0.1764 -0.0809
   67POPC   GL1  715   3.337   3.682   4.349 -0.0061 -0.0651 -0.2741
   67POPC   GL2  716   3.027   3.764   4.284 -0.1459 -0.2132 -0.0590
   67POPC   C1A  717   3.385   3.685   4.834  0.1802  0.0272  0.0229
   67POPC   D2A  718   3.742   3.693   5.189  0.0747  0.2144 -0.1114
   67POPC   C3A  719   4.013   4.009   5.494 -0.1881  0.1509  0.2205
   67POPC   C4A  720   4.286   4.316   5.786  0.1533  0.0689  0.2857
   67POPC   C1B  721   2.973   3.553   4.610 -0.0495 -0.0589  0.2443
   67POPC   C2B  722   3.010   3.327   4.972 -0.0402 -0.2586  0.1016
   67POPC   C3B  723   2.781   3.463   5.438 -0.1089 -0.1799 -0.2482
   67POPC   C4B  724   2.364   3.626   5.402 -0.3358 -0.1386 -0.0238
   68POPC   NC3  725   1.164   0.323   3.909 -0.3163 -0.1157  0.4146
   68POPC   PO4  726   1.134  -0.040   3.972  0.0573  0.2529 -0.2156
   68POPC   GL1  727   0.807  -0.004   4.310 -0.1135 -0.0060 -0.3342
   68POPC   GL2  728   0.869  -0.312   4.327  0.3185  0.1087 -0.3684
   68POPC   C1A  729   0.735   0.069   4.741  0.0548 -0.1415  0.1242
   68POPC   D2A  730   0.742   0.208   5.143  0.1735  0.0788 -0.1182
   68POPC   C3A  731   0.382   0.514   5.222  0.0575  0.3824 -0.3223
   68POPC   C4A  732   0.082   0.865   5.077  0.0724  0.0617 -0.0626
   68POPC   C1B  733   0.760  -0.470   4.686  0.1321 -0.1080  0.4256
   68POPC   C2B  734   0.671  -0.747   5.048  0.0847 -0.2424  0.0563
   68POPC   C3B  735   0.577  -1.156   5.340  0.1158 -0.2320 -0.3456
   68POPC   C4B  736   0.567  -1.493   5.667 -0.1243  0.0359  0.2047
   69POPC   NC3  737   2.335   4.352   4.027  0.0343  0.0075  0.0452
   69POPC   PO4  738   2.092   4.628   4.065  0.0223 -0.1535  0.0159
   69POPC   GL1  739   1.909   4.748   4.518  0.0595  0.1091 -0.0354
   69POPC   GL2  740   1.699   4.664   4.325  0.1786  0.0345  0.4585
   69POPC   C1A  741   1.704   4.663   4.932  0.0799  0.0189 -0.0624
   69POPC   D2A  742   1.602   4.669   5.418 -0.0189 -0.3053  0.0786
   69POPC   C3A  743   1.720   4.359   5.660  0.0752  0.0143 -0.1110
   69POPC   C4A  744   1.787   3.928   5.862 -0.0865  0.2568 -0.0510
   69POPC   C1B  745   1.412   4.549   4.496  0.1982 -0.0664  0.1071
   69POPC   C2B  746   1.153   4.321   4.668 -0.0594  0.0379 -0.2519
   69POPC   C3B  747   0.994   4.231   5.046 -0.0493  0.2577 -0.0366
   69POPC   C4B  748   0.740   4.241   5.410 -0.3309  0.0343  0.0258
   70POPC   NC3  749   4.473   3.193   3.903  0.0273 -0.0241  0.2632
   70POPC   PO4  750   4.881   3.198   3.828  0.1774  0.4087  0.1879
   70POPC   GL1  751   5.122   3.158   4.236 -0.0900 -0.3142  0.0118
   70POPC   GL2  752   4.836   3.237   4.336  0.0733 -0.0311 -0.2875
   70POPC   C1A  753   5.523   3.282   4.457  0.5057 -0.0276 -0.0253
   70POPC   D2A  754   5.805   3.435   4.924 -0.0921  0.2093  0.1706
   70POPC   C3A  755   5.791   3.389   5.366 -0.2692  0.0658  0.1690
   70POPC   C4A  756   5.970   3.317   5.835 -0.0071 -0.1785 -0.1927
   70POPC   C1B  757   4.809   3.082   4.685  0.1638  0.1148  0.0214
   70POPC   C2B  758   4.790   2.906   5.045  0.1238 -0.0932 -0.0160
   70POPC   C3B  759   4.582   2.961   5.441  0.0239  0.1712 -0.1154
   70POPC   C4B  760   4.631   2.914   5.984 -0.1946 -0.0051  0.0372
   71W        W  761   2.188   3.843   8.312 -0.0373 -0.2527  0.2076
   72W        W  762   0.622   1.604   7.816 -0.1323 -0.2465  0.2513
   73W        W  763   2.334   0.702   3.309  0.0177 -0.0026 -0.0675
   74W        W  764   0.255   2.348   3.425 -0.1164 -0.0631  0.0589
   75W        W  765   3.335   1.663   0.741 -0.2923 -0.0578  0.0369
   76W        W  766   4.235   4.046   2.376 -0.0286  0.0209 -0.2860
   77W        W  767   0.088   3.342   2.529  0.3556 -0.1312  0.1492
   78W        W  768   4.383   1.260   3.019  0.0377 -0.0038 -0.2700
   79W        W  769   1.062   1.758   9.042 -0.1839 -0.2385  0.2868
   80W        W  770   1.445   3.337   8.219 -0.0667 -0.0432  0.2491
   81W        W  771   3.091   4.307   1.988  0.5069  0.1083 -0.3869
   82W        W  772   2.246   2.864   3.682  0.0398  0.1733 -0.1094
   83W        W  773   3.635   1.127   3.536 -0.2888 -0.3006  0.1300
   84W        W  774   0.945   2.859   0.273 -0.0384 -0.0447  0.1129
   85W        W  775   2.312   3.557   8.671 -0.2075  0.1335 -0.0735
   86W        W  776   3.171   2.819  10.972 -0.2685  0.2945 -0.0740
   87W        W  777   3.341   2.612   1.665 -0.2418 -0.1594 -0.1975
   88W        W  778   3.559   1.305   1.921  0.0724 -0.0285  0.0166
   89W        W  779   0.093   2.564   0.238 -0.0605 -0.1613  0.3089
   90W        W  780   4.208   3.891  10.302 -0.0444  0.1114 -0.1467
   91W        W  781   0.922   0.415   2.699  0.1770  0.1937  0.0143
   92W        W  782   0.860   2.558   8.623 -0.2635 -0.1138  0.3341
   93W        W  783   0.920   3.853   2.797  0.0186  0.0450 -0.1471
   94W        W  784   0.545   0.640   2.441 -0.0069 -0.1004 -0.2632
   95W        W  785   1.657   1.107   1.333  0.1534  0.0715 -0.0897
   96W        W  786   0.279   3.425   3.409 -0.2645 -0.2283  0.3508
   97W        W  787   0.725   4.019   8.463 -0.1982  0.1702  0.0905
   98W        W  788   0.055   3.489   0.605  0.1021  0.0483 -0.1095
   99W        W  789   3.620   0.671   9.869  0.2559  0.2242  0.0441
  100W        W  790   0.952   0.124   9.604 -0.2922  0.0078  0.0387
  101W        W  791   0.225   0.699   9.052  0.1941 -0.1300 -0.0696
  102W        W  792   1.952   4.475   8.678 -0.0092  0.1909 -0.0135
  103W        W  793   1.518   3.094   1.266  0.0249 -0.1771  0.1509
  104W        W  794   2.356   3.841   9.125  0.0669 -0.3145 -0.1004
  105W        W  795   0.444   2.817   3.080 -0.5462 -0.5808 -0.0151
  106W        W  796   2.298   0.692   2.410  0.1005  0.0884 -0.4303
  107W        W  797   3.153   4.283   9.545  0.0248 -0.0165  0.1170
  108W        W  798   2.407   1.353  10.458 -0.1410 -0.1280  0.5534
  109W        W  799   0.685   2.879   8.992 -0.0961  0.0177 -0.0352
  110W        W  800   3.327   0.573  10.239  0.1507  0.1263  0.1643
  111W        W  801   0.593   1.810   2.742 -0.0308  0.0807 -0.3673
  112W        W  802   2.195   1.408   1.040  0.2033 -0.1193 -0.1795
  113W        W  803   1.470   0.975   8.856 -0.0455  0.0451 -0.1688
  114W        W  804   0.182   4.085  11.245  0.1439  0.3145  0.2920
  115W        W  805   0.452   4.421   8.561 -0.3223  0.0055 -0.0293
  116W        W  806   3.094   1.211   0.714 -0.1265 -0.1757 -0.1915
  117W        W  807   2.699   3.368   9.105  0.2869 -0.1224 -0.0207
  118W        W  808   3.320   2.122   9.515 -0.0860 -0.0560  0.3060
  119W        W  809   0.678   3.961  11.371  0.1134  0.1180  0.0092
  120W        W  810   1.149   3.971   2.272 -0.0827  0.2545  0.0514
  121W        W  811   1.286   3.949   1.757 -0.0022  0.2294 -0.2314
  122W        W  812   2.061   4.384   2.202 -0.1468  0.0901 -0.1594
  123W        W  813   1.651   0.167   1.065  0.1011  0.0500  0.0097
  124W        W  814   0.791   4.045   1.892 -0.0588 -0.2185  0.2060
  125W        W  815   2.154   3.012  11.151  0.1207 -0.0600  0.1838
  126W        W  816   2.787   1.372   0.407  0.1396 -0.3434 -0.1557
  127W        W  817   2.042   1.532   7.886 -0.2460  0.1926 -0.0621
  128W        W  818   0.094   3.665  10.166 -0.0441 -0.1021  0.0233
  129W        W  819   2.747   1.866   1.363 -0.0331 -0.6004  0.1308
  130W        W  820   1.101   1.298   3.590  0.1087 -0.0350  0.0072
  131W        W  821   2.425   3.347  11.384 -0.0486 -0.0421 -0.1434
  132W        W  822   2.985   4.368   9.997  0.0151  0.0309 -0.2575
  133W        W  823   1.040   1.123   0.719 -0.2303 -0.0540 -0.1657
  134W        W  824   3.830   0.518   8.405 -0.1295 -0.0302  0.1808
  135W        W  825   2.610   1.093   2.275  0.0655  0.0189 -0.0196
  136W        W  826   1.339   0.976   0.027  0.0720 -0.2434  0.1254
  137W        W  827   0.932   1.845   1.365 -0.2673 -0.2091 -0.0633
  138W        W  828   4.274   2.510   2.528 -0.1011  0.1408  0.1229
  139W        W  829   3.700   3.098   2.367  0.0287 -0.2376  0.0483
  140W        W  830   2.868   3.107  10.082 -0.0716  0.1309 -0.1061
  141W        W  831   3.430   2.194   0.049  0.0715  0.4906  0.0101
  142W        W  832   0.552   3.497   8.349  0.2142  0.1017 -0.1160
  143W        W  833   3.781   3.657  11.329  0.0999 -0.1174 -0.0784
  144W        W  834   1.891   1.820   9.030  0.0953 -0.2897 -0.2114
  145W        W  835   4.250   1.716   2.124 -0.0467  0.1209  0.1552
  146W        W  836   2.277   2.754   1.485 -0.3293 -0.0601 -0.1611
  147W        W  837   3.008   3.629  10.674  0.0020 -0.0948 -0.1113
  148W        W  838   3.158   2.347  11.126  0.0645 -0.1614  0.1311
  149W        W  839   2.628   3.642   3.698 -0.1029  0.1421  0.1798
  150W        W  840   1.563   2.329   3.801 -0.0061  0.1765  0.0491
  151W        W  841   1.104   3.043   7.990  0.2377 -0.1356 -0.1244
  152W        W  842   4.205   3.721   8.878  0.1443 -0.0379 -0.1154
  153W        W  843   2.061   1.007   0.810 -0.0304  0.0184  0.1820
  154W        W  844   2.640   1.926   1.901  0.1415 -0.0743  0.0496
  155W        W  845   3.786   4.249   8.000 -0.0597  0.0539 -0.1933
  156W        W  846   0.584   1.775   0.912  0.0068 -0.0909 -0.5510
  157W        W  847   2.863   4.379   0.412 -0.2384 -0.0742  0.0575
  158W        W  848   1.603   3.050   2.038 -0.2508  0.3632 -0.1597
  159W        W  849   3.310   3.124   9.168  0.1582  0.3230 -0.0505
  160W        W  850   0.961   1.855  11.509 -0.0178  0.0104 -0.0738
  161W        W  851   4.183   0.720   0.278 -0.0834  0.2380 -0.1378
  162W        W  852   1.277   1.339   9.500  0.0635  0.2760  0.3263
  163W        W  853   4.108   2.911   0.687  0.2400 -0.1387  0.0555
  164W        W  854   3.668   3.624   0.732  0.0688 -0.0525 -0.1671
  165W        W  855   3.086   2.465   3.301  0.2208  0.0204  0.0864
  166W        W  856   2.895   3.917   0.607 -0.0770  0.0020 -0.0621
  167W        W  857   0.929   4.258   1.420 -0.0553 -0.0410 -0.0098
  168W        W  858   1.027   2.457   9.138 -0.0752 -0.0128  0.1078
  169W        W  859   2.859   0.141   9.170  0.0812 -0.0946  0.1647
  170W        W  860   1.208   1.775   9.985 -0.2347 -0.4243 -0.0977
  171W        W  861   2.599   1.367   2.932 -0.1246  0.1994 -0.0983
  172W        W  862   2.892   3.228   2.663  0.0681 -0.2289  0.1590
  173W        W  863   1.474   0.838   8.196  0.1326  0.1376  0.3809
  174W        W  864   1.631   2.094  10.306 -0.0788 -0.0941  0.3366
  175W        W  865   1.948   3.558  10.018  0.0433  0.0268 -0.2452
  176W        W  866   2.820   1.858   0.470 -0.1285 -0.1896  0.3184
  177W        W  867   2.562   1.103  10.034  0.1449 -0.1653  0.5346
  178W        W  868   4.488   3.203  10.976 -0.2109 -0.0983  0.2029
  179W        W  869   1.544   3.274   2.948 -0.0688  0.0224  0.1582
  180W        W  870   1.095   4.184   8.795  0.0349  0.1731  0.1661
  181W        W  871   2.176   1.373   9.967 -0.2254  0.0518 -0.0744
  182W        W  872   3.569   2.742  11.335 -0.1977 -0.0470 -0.2690
  183W        W  873   2.484   0.226   2.307  0.1285 -0.1576  0.2233
  184W        W  874   0.965   3.801  10.149 -0.1090  0.0131 -0.3979
  185W        W  875   1.739   1.441   0.634 -0.0118 -0.0410 -0.0796
  186W        W  876   1.280   0.132   0.148 -0.2851  0.0492  0.0636
  187W        W  877   1.103   1.685   8.085 -0.2198 -0.0939 -0.1597
  188W        W  878   1.676   4.341   1.773 -0.0598 -0.1292 -0.0641
  189W        W  879   4.055   2.057   0.804  0.3642 -0.0739 -0.1636
  190W        W  880   3.423   2.835  10.228  0.1775 -0.2200 -0.0051
  191W        W  881   1.065   1.249   2.884 -0.1065 -0.1138  0.0110
  192W        W  882   3.423   0.147   3.244 -0.1007 -0.0675 -0.4294
  193W        W  883   3.664   3.781  10.254 -0.0158 -0.2771 -0.1566
  194W        W  884   1.834   1.701   1.755  0.1173 -0.0862  0.0089
  195W        W  885   2.177   1.467   9.186 -0.0482 -0.2524 -0.0959
  196W        W  886   1.065   3.128   8.584 -0.0044  0.1017 -0.0255
  197W        W  887   4.300   1.658  10.915  0.1911  0.3619 -0.1190
  198W        W  888   3.410   0.182   1.737  0.0065 -0.1470 -0.0745
  199W        W  889   3.959   1.535   9.771  0.0739 -0.3295 -0.0755
  200W        W  890   2.708   1.944   7.868  0.0040  0.1387 -0.1059
  201W        W  891   0.550   2.924  11.434 -0.1469  0.0425 -0.0927
  202W        W  892   0.121   2.929   3.441 -0.2724  0.2145  0.3633
  203W        W  893   3.047   1.583   1.593  0.1380  0.1027  0.1082
  204W        W  894   1.950   2.674  10.258 -0.1949  0.2533  0.0629
  205W        W  895   0.683   2.022   9.939 -0.1452 -0.0799 -0.1569
  206W        W  896   0.444   2.425   8.362  0.0145  0.1261  0.0366
  207W        W  897   0.107   2.251  10.732  0.1245  0.1241  0.1811
  208W        W  898   2.977   3.014   1.835  0.1235  0.1765  0.1251
  209W        W  899   0.087   4.281  10.379 -0.0674  0.0873  0.1387
  210W        W  900   1.906   3.463  11.338 -0.2189  0.0396 -0.1642
  211W        W  901   1.960   4.038   0.572 -0.3638 -0.3379  0.1969
  212W        W  902   2.811   0.353  10.203  0.1085  0.0428  0.0165
  213W        W  903   2.526   0.469   0.171  0.1760 -0.2446  0.0893
  214W        W  904   0.569   2.950  10.545  0.2068  0.0108  0.1758
  215W        W  905   2.055   3.919   1.219 -0.2085 -0.1008 -0.0718
  216W        W  906   1.616   0.394   8.438 -0.0476 -0.2232  0.1432
  217W        W  907   3.446   0.840   4.067 -0.0586 -0.0345 -0.2624
  218W        W  908   3.034   1.523   3.231  0.1429 -0.2986 -0.1985
  219W        W  909   3.669   4.057   2.730 -0.1676 -0.3010 -0.1494
  220W        W  910   2.526   4.435  10.267  0.0633 -0.1144 -0.2280
  221W        W  911   0.364   4.221   1.486  0.0797  0.1710  0.2275
  222W        W  912   3.155   3.649   9.152  0.1430  0.0146 -0.0450
  223W        W  913   1.425   4.230  10.709  0.2917  0.1156 -0.0616
  224W        W  914   3.005   1.337   7.647 -0.2703 -0.3693  0.5332
  225W        W  915   0.563   1.005   0.504  0.1615 -0.0944 -0.2032
  226W        W  916   0.401   1.845   1.378 -0.1841 -0.1857  0.2189
  227W        W  917   2.520   3.548   2.042  0.0510  0.2375 -0.0586
  228W        W  918   0.533   1.486   3.705  0.1361  0.0003 -0.1542
  229W        W  919   0.793   2.031  10.507 -0.0676 -0.2293  0.0075
  230W        W  920   1.258   2.713  11.466  0.2297  0.0867 -0.0130
  231W        W  921   1.089   3.101  10.743  0.2063  0.0614 -0.3684
  232W        W  922   0.548   0.029  10.579  0.2617  0.0263  0.0133
  233W        W  923   1.787   0.275  11.223  0.1022  0.2839  0.1549
  234W        W  924   2.831   0.103   8.135 -0.4974  0.1294  0.1362
  235W        W  925   4.391   3.102   1.019 -0.1039 -0.0050 -0.0919
  236W        W  926   0.655   1.174   2.377  0.0605 -0.0144 -0.1782
  237W        W  927   4.023   1.861   1.272  0.1012 -0.1053 -0.0638
  238W        W  928   1.854   2.386   8.961  0.3671  0.0789  0.0779
  239W        W  929   2.950   1.011   1.182 -0.0760  0.0438 -0.2058
  240W        W  930   0.948   3.134  10.257  0.1831 -0.0857  0.0718
  241W        W  931   0.141   1.059   1.034  0.0607  0.0560 -0.0704
  242W        W  932   4.017   2.284   3.945  0.0074  0.2897 -0.0460
  243W        W  933   1.141   2.537   9.729  0.2404  0.1235 -0.2720
  244W        W  934   3.144   1.152   0.142 -0.1994  0.1967 -0.1244
  245W        W  935   2.899   3.414  11.197  0.3070  0.3207 -0.1317
  246W        W  936   0.045   2.523   9.497  0.1152  0.0015 -0.0323
  247W        W  937   4.243   3.012   2.591  0.1945  0.1222  0.3158
  248W        W  938   2.955   3.743   7.433  0.0624  0.2954 -0.2201
  249W        W  939   0.508   2.760   0.596  0.0476  0.0129  0.0778
  250W        W  940   2.532   3.776  10.972 -0.1050  0.1034  0.0585
  251W        W  941   0.430   3.175   0.854 -0.3640 -0.1440 -0.2121
  252W        W  942   4.228   0.557   8.871 -0.1149  0.2741 -0.2510
  253W        W  943   0.994   0.887  11.190 -0.1355 -0.0092  0.2969
  254W        W  944   0.568   0.158   2.288 -0.2548 -0.0513 -0.0015
  255W        W  945   1.004   1.696   7.153 -0.0081  0.1395 -0.0593
  256W        W  946   3.457   0.269   1.230  0.1286 -0.0580 -0.2685
  257W        W  947   1.420   2.775   0.413  0.4937  0.1149  0.2764
  258W        W  948   1.665   2.464  11.127 -0.0124 -0.2689 -0.1467
  259W        W  949   0.218   0.994   8.283  0.0801 -0.0996  0.0014
  260W        W  950   2.115   2.131   3.213 -0.3888 -0.0597  0.1038
  261W        W  951   1.214   2.239  10.608 -0.1325 -0.2537 -0.0984
  262W        W  952   3.368   2.775   2.637 -0.2498  0.3173 -0.0214
  263W        W  953   0.349   2.397   8.830 -0.0099 -0.0371 -0.3842
  264W        W  954   2.809   0.785  11.380  0.1997  0.0707  0.3082
  265W        W  955   3.391   0.761  10.802  0.0704 -0.4652  0.0437
  266W        W  956   1.103   1.203  10.324 -0.2367 -0.6779  0.2543
  267W        W  957   3.092   3.077   3.846  0.0871  0.1709  0.1289
  268W        W  958   1.166   0.654  10.334 -0.0259  0.4068  0.3005
  269W        W  959   3.990   0.350  11.410 -0.1077  0.0723 -0.1190
  270W        W  960   0.189   1.479   8.913  0.3211  0.0067 -0.0665
  271W        W  961   1.400   0.589  10.805 -0.0456 -0.0307 -0.0072
  272W        W  962   1.575   4.374   3.219 -0.1088  0.1104 -0.3682
  273W        W  963   0.093   2.054   0.387 -0.2479  0.2269  0.1618
  274W        W  964   0.324   3.445   1.886 -0.1679  0.2422  0.0710
  275W        W  965   1.781   3.470   1.203 -0.1271 -0.2378  0.2108
  276W        W  966   1.624   2.540  10.614  0.0026 -0.1605  0.1673
  277W        W  967   3.851   0.024  10.977 -0.3828 -0.0905  0.0682
  278W        W  968   0.427   3.066   7.457 -0.0938  0.0775 -0.0988
  279W        W  969   3.158   1.274  10.328 -0.2121 -0.0427  0.2544
  280W        W  970   1.801   1.574   3.279  0.1513  0.1198 -0.1368
  281W        W  971   3.780   0.774   1.196  0.1536 -0.1411 -0.0644
  282W        W  972   3.587   2.102   0.905 -0.0452 -0.0924 -0.1137
  283W        W  973   1.268   3.240   0.300 -0.0698  0.1715 -0.0695
  284W        W  974   0.298   1.375   3.286 -0.0218 -0.3439  0.0312
  285W        W  975   3.438   0.865   8.764 -0.1948 -0.0366 -0.0518
  286W        W  976   0.119   1.411   2.357  0.0798 -0.0313 -0.0234
  287W        W  977   2.526   4.141   9.871  0.3195 -0.0009 -0.2134
  288W        W  978   3.531   3.878   9.465 -0.2608 -0.0173 -0.4255
  289W        W  979   3.372   1.218   1.468 -0.6048 -0.1510 -0.0676
  290W        W  980   0.511   3.131  10.992  0.1360 -0.1503 -0.2296
  291W        W  981   4.264   3.845   9.785  0.1055 -0.3137  0.4125
  292W        W  982   2.724   0.320   7.672  0.1428 -0.1496 -0.0426
  293W        W  983   3.958   3.772  10.758 -0.2437 -0.1554  0.3412
  294W        W  984   2.936   1.554   8.129  0.3571 -0.0169  0.0339
  295W        W  985   1.739   0.088   7.349 -0.2776  0.0419  0.0141
  296W        W  986   2.622   2.344   2.219  0.1027 -0.2370 -0.0237
  297W        W  987   1.403   0.563   1.231  0.0964 -0.0340 -0.1335
  298W        W  988   4.219   0.697   3.014 -0.1284 -0.3537  0.0545
  299W        W  989   2.384   2.398   8.111 -0.0418 -0.2395  0.0524
  300W        W  990   4.081   3.771   1.601 -0.1786  0.0987 -0.0594
  301W        W  991   3.878   2.728  10.394  0.1132 -0.1369  0.2267
  302W        W  992   2.152   3.130   1.988  0.2356  0.1619 -0.1151
  303W        W  993   0.519   3.488   7.787 -0.1520 -0.2378  0.1947
  304W        W  994   0.957   3.358   7.623 -0.2596 -0.0565 -0.2091
  305W        W  995   1.069   2.068   8.463  0.4935  0.0867  0.0408
  306W        W  996   1.791   1.218   2.824 -0.0125 -0.0396  0.0651
  307W        W  997   1.400   3.960  10.249  0.0511  0.0380 -0.1164
  308W        W  998   1.619   0.977  10.514  0.1377 -0.1634  0.4705
  309W        W  999   0.018   4.203   8.518 -0.0503  0.1173  0.1673
  310W        W 1000   4.473   0.210   9.796 -0.1598 -0.2006 -0.4436
  311W        W 1001   0.006   2.599   2.963 -0.1277  0.1871  0.0689
  312W        W 1002   0.518   0.155   1.360 -0.1364  0.1537  0.1092
  313W        W 1003   3.076   2.948   3.121 -0.1337 -0.0858 -0.1463
  314W        W 1004   1.756   2.217   0.034 -0.0913 -0.0142  0.0840
  315W        W 1005   3.340   0.208   9.826  0.2321 -0.4404  0.4575
  316W        W 1006   2.876   4.079   3.994 -0.0773 -0.0673  0.2779
  317W        W 1007   0.748   3.930   9.703 -0.0722 -0.0782 -0.1415
  318W        W 1008   1.852   3.026   0.519 -0.0587  0.2447  0.2590
  319W        W 1009   1.260   0.632   7.808  0.1191  0.3682 -0.0027
  320W        W 1010   1.824   0.784  11.337 -0.0232  0.0269 -0.2844
  321W        W 1011   1.022   4.276  10.292  0.0517 -0.0352  0.2806
  322W        W 1012   1.909   2.497   8.384 -0.2453  0.1520  0.2246
  323W        W 1013   4.458   2.364   8.508 -0.0913  0.1405  0.1207
  324W        W 1014   2.675   2.593   3.115  0.1184 -0.0742  0.0547
  325W        W 1015   1.516   2.252   8.019  0.1204 -0.2887  0.0862
  326W        W 1016   2.007   2.054   8.031 -0.1146 -0.1310 -0.1555
  327W        W 1017   1.131   2.119   9.518  0.0300  0.1115 -0.1270
  328W        W 1018   1.838   2.608   9.732  0.0354 -0.1253  0.0956
  329W        W 1019   2.627   4.178   9.368  0.0573  0.3997 -0.3416
  330W        W 1020   4.303   2.517   3.395  0.1622  0.4757 -0.2314
  331W        W 1021   4.072   3.246   8.989  0.3251 -0.2367  0.0834
  332W        W 1022   2.483   0.239   1.227 -0.1461 -0.0252 -0.2065
  333W        W 1023   1.735   0.701   1.933 -0.1164  0.0093 -0.1312
  334W        W 1024   0.127   0.474   2.141  0.2118  0.1565 -0.0092
  335W        W 1025   3.305   1.597   8.400 -0.0026 -0.0718  0.0747
  336W        W 1026   1.884   1.958   3.596 -0.0561 -0.0402  0.1250
  337W        W 1027   1.826   3.850   3.115  0.0962 -0.2926 -0.0189
  338W        W 1028   4.038   0.141   8.762 -0.2633 -0.0701  0.2970
  339W        W 1029   2.313   1.526   0.512  0.1499 -0.0997 -0.0051
  340W        W 1030   1.452   3.640   3.385 -0.0557  0.0465  0.1682
  341W        W 1031   4.217   3.051  10.244 -0.3388  0.0530 -0.0950
  342W        W 1032   2.042   0.364   3.648 -0.2473 -0.1812  0.4501
  343W        W 1033   2.489   1.914  10.646  0.0762  0.1578  0.1061
  344W        W 1034   2.734   0.616   8.305 -0.2616  0.1102 -0.0048
  345W        W 1035   3.249   0.038  10.316  0.0557 -0.3261  0.1317
  346W        W 1036   0.544   0.087   3.415 -0.3087  0.0317 -0.1500
  347W        W 1037   2.101   4.448  11.503 -0.2745 -0.0135  0.1660
  348W        W 1038   4.308   1.821   0.020  0.0557 -0.0897 -0.0011
  349W        W 1039   3.684   4.271  10.261  0.0132 -0.0867  0.1024
  350W        W 1040   2.044   0.374   0.145 -0.0143  0.0269 -0.0351
  351W        W 1041   3.346   2.507   8.190 -0.1488  0.0845  0.0293
  352W        W 1042   3.209   3.643   2.478  0.0473  0.1748  0.0985
  353W        W 1043   3.271   1.806  11.141  0.0415 -0.2938 -0.1188
  354W        W 1044   2.854   2.100   0.038  0.0671  0.1719  0.0153
  355W        W 1045   3.949   0.931   2.562  0.0787  0.2052 -0.2475
  356W        W 1046   0.354   3.985   7.598 -0.1373 -0.0470  0.1133
  357W        W 1047   0.915   2.620   3.192 -0.1691  0.2115 -0.0449
  358W        W 1048   2.335   3.351  10.864 -0.2857 -0.2421 -0.2216
  359W        W 1049   2.605   1.133   1.769 -0.0001 -0.0252 -0.2047
  360W        W 1050   3.950   2.333  11.429  0.3089 -0.1590  0.1259
  361W        W 1051   4.038   0.524   9.331 -0.1914  0.2156  0.0376
  362W        W 1052   4.019   0.682   4.087 -0.0018 -0.1719 -0.0759
  363W        W 1053   2.995   0.362   0.587 -0.0059  0.0768  0.0875
  364W        W 1054   1.082   1.708   2.496  0.0693  0.0002  0.3671
  365W        W 1055   2.131   1.790  10.186 -0.0753  0.3488 -0.5932
  366W        W 1056   0.579   1.635  11.232  0.2083  0.2861 -0.1103
  367W        W 1057   3.315   0.832   0.512  0.1875  0.1097  0.1753
  368W        W 1058   1.659   1.569  10.116 -0.1348 -0.0041  0.1183
  369W        W 1059   2.341   3.788  10.383 -0.1544  0.3887 -0.0414
  370W        W 1060   2.644   3.679   9.487  0.1547 -0.0544  0.0403
  371W        W 1061   1.627   3.834   9.743  0.0577  0.0813  0.0388
  372W        W 1062   2.901   1.482   2.565  0.4928  0.3826 -0.1437
  373W        W 1063   0.711   2.671   2.535 -0.2141  0.0058 -0.1210
  374W        W 1064   3.578   2.702   8.585 -0.2912  0.0087  0.0793
  375W        W 1065   1.957   3.485   3.537  0.0173  0.0211 -0.1161
  376W        W 1066   2.506   4.283   1.421  0.2746 -0.2590 -0.0117
  377W        W 1067   4.075   0.216   2.892  0.1058 -0.1333  0.1783
  378W        W 1068   0.314   0.171   0.516 -0.3306 -0.3070  0.0456
  379W        W 1069   0.729   4.392   0.980  0.0321 -0.1855 -0.1791
  380W        W 1070   3.874   2.758   2.724 -0.0473 -0.1862  0.1165
  381W        W 1071   0.115   2.580  10.051  0.1310  0.2511 -0.1768
  382W        W 1072   1.338   1.440   1.028 -0.0548  0.0235  0.0091
  383W        W 1073   2.744   3.747   3.230  0.3266 -0.0711 -0.1225
  384W        W 1074   3.005   2.058   0.996  0.2774 -0.1207 -0.1086
  385W        W 1075   1.909   3.182   2.450  0.1230  0.2082 -0.0338
  386W        W 1076   4.405   2.424   8.980 -0.2930  0.0350 -0.1504
  387W        W 1077   0.346   2.972   9.894 -0.2459  0.0811 -0.0298
  388W        W 1078   1.467   3.248  11.270  0.4627  0.1823  0.0240
  389W        W 1079   0.096   1.007   0.055 -0.1119  0.0620 -0.0165
  390W        W 1080   2.193   1.008   2.042 -0.0470 -0.1534  0.3613
  391W        W 1081   2.327   3.050   0.613 -0.2797 -0.0915  0.0976
  392W        W 1082   0.323   2.365   1.542 -0.1001  0.3080  0.1083
  393W        W 1083   2.964   0.833  10.549 -0.0417 -0.0935  0.0034
  394W        W 1084   1.836   2.873   8.823  0.0345 -0.2249  0.2671
  395W        W 1085   2.369   1.724   8.832 -0.1569  0.0926  0.1915
  396W        W 1086   2.824   3.055   0.417  0.0651  0.0833  0.1752
  397W        W 1087   4.060   0.772  10.294 -0.1777  0.0972 -0.2283
  398W        W 1088   0.530   2.759   3.602  0.0577  0.0309  0.1764
  399W        W 1089   4.026   2.632   4.427  0.3485 -0.0531 -0.0163
  400W        W 1090   1.458   3.873   2.811 -0.0356  0.0848 -0.0784
  401W        W 1091   0.544   1.956   4.755 -0.0067 -0.1699 -0.0404
  402W        W 1092   2.283   1.825   1.564 -0.1128  0.2743 -0.3032
  403W        W 1093   1.171   2.187   1.002 -0.1498 -0.2249  0.0047
  404W        W 1094   0.254   1.515  10.795  0.1036  0.0308 -0.2641
  405W        W 1095   0.754   1.560   0.441 -0.1269 -0.0989 -0.0280
  406W        W 1096   1.600   3.863  11.389 -0.1674  0.2172 -0.0498
  407W        W 1097   3.154   0.467   8.935  0.3956 -0.1871 -0.1519
  408W        W 1098   0.352   0.817   7.830  0.0625 -0.0844  0.1500
  409W        W 1099   0.535   0.155   9.060 -0.1508  0.1467  0.0625
  410W        W 1100   0.619   4.330   8.087  0.1314  0.6018 -0.1943
  411W        W 1101   3.746   2.105   3.348  0.0275  0.3700 -0.0446
  412W        W 1102   2.910   2.839   9.024 -0.0438  0.3040 -0.1077
  413W        W 1103   0.952   3.104   3.710 -0.0968  0.2640 -0.2483
  414W        W 1104   3.984   3.355   1.042  0.1414  0.1504  0.0588
  415W        W 1105   2.393   2.077   0.303 -0.1813  0.0739  0.0408
  416W        W 1106   1.815   0.934   2.407  0.1232  0.1467  0.2111
  417W        W 1107   2.656   1.993   8.387 -0.0236  0.1653  0.1800
  418W        W 1108   3.494   0.289   0.710  0.1274 -0.0983 -0.2855
  419W        W 1109   1.252   2.662  10.957 -0.1136 -0.1158 -0.2719
  420W        W 1110   2.042   1.944   0.627  0.1370  0.0003  0.1418
  421W        W 1111   0.126   1.937   8.103  0.0201  0.0646 -0.1885
  422W        W 1112   4.268   0.470   8.140  0.0216 -0.0644 -0.1775
  423W        W 1113   0.140   2.807   8.488  0.5263  0.0271 -0.2278
  424W        W 1114   4.357   0.907   7.862 -0.0932 -0.2369  0.1497
  425W        W 1115   4.095   2.172   0.331 -0.2034 -0.0479  0.0013
  426W        W 1116   3.461   0.097   2.774  0.2435 -0.0726 -0.1026
  427W        W 1117   0.737   1.598   3.195  0.1037 -0.1329 -0.0211
  428W        W 1118   2.369   3.407   2.500  0.2678  0.0963 -0.2453
  429W        W 1119   2.230   2.103  11.061  0.0315  0.3095 -0.4086
  430W        W 1120   0.992   2.969   2.830  0.1160  0.1389  0.4722
  431W        W 1121   1.530   1.704   9.552  0.2895  0.0232 -0.1564
  432W        W 1122   4.341   2.769   8.085  0.0010 -0.0129 -0.2069
  433W        W 1123   1.705   1.236   1.963  0.0583 -0.1641 -0.1644
  434W        W 1124   1.116   3.487   3.084  0.0294  0.0793 -0.1225
  435W        W 1125   1.875   2.616   1.805 -0.1008  0.0843  0.0962
  436W        W 1126   1.757   2.822   2.804 -0.1828 -0.0035 -0.1776
  437W        W 1127   4.209   2.747   9.798 -0.0746 -0.1157  0.0710
  438W        W 1128   3.465   3.309   2.801  0.0609 -0.2373  0.0002
  439W        W 1129   1.233   2.731   4.127 -0.0853  0.1203  0.0044
  440W        W 1130   2.790   3.218  10.594 -0.0759  0.2376  0.0012
  441W        W 1131   1.358   0.832   2.200  0.1145  0.1316 -0.6304
  442W        W 1132   2.272   0.994   7.941  0.3259 -0.0108 -0.2379
  443W        W 1133   4.184   2.689   7.595  0.1230 -0.4290 -0.0027
  444W        W 1134   4.089   2.850  11.204 -0.0549 -0.0347  0.1001
  445W        W 1135   0.959   4.375  10.823 -0.1764  0.0582 -0.3514
  446W        W 1136   1.569   3.313   0.819  0.2183 -0.0117  0.1518
  447W        W 1137   3.828   3.763   3.100 -0.1821  0.1140  0.1343
  448W        W 1138   1.928   0.675   8.115 -0.2648  0.3924  0.1495
  449W        W 1139   3.048   2.316   4.274 -0.0590  0.3273  0.0408
  450W        W 1140   3.392   1.896   9.965 -0.2339  0.0551 -0.2938
  451W        W 1141   0.058   0.775  10.735  0.1225  0.4716 -0.3099
  452W        W 1142   1.371   0.428   1.830 -0.2343 -0.0657  0.0342
  453W        W 1143   0.678   2.055   9.257 -0.0198 -0.3089 -0.2172
  454W        W 1144   4.248   0.308  10.230 -0.0411  0.2975  0.0254
  455W        W 1145   4.462   4.207   0.586  0.1270 -0.0007 -0.1342
  456W        W 1146   3.983   3.288   1.960  0.1177 -0.0682  0.0429
  457W        W 1147   1.675   2.177   1.965  0.0936 -0.1592  0.0651
  458W        W 1148   3.496   2.983   8.093  0.1328  0.1311 -0.1969
  459W        W 1149   3.580   2.744   7.625 -0.0582  0.0971 -0.3987
  460W        W 1150   4.283   1.668  10.420 -0.0637  0.0088 -0.0384
  461W        W 1151   0.325   1.134   9.956  0.0036 -0.0870 -0.1487
  462W        W 1152   0.601   0.506  10.481  0.0705 -0.4382  0.0439
  463W        W 1153   2.235   4.019  11.263 -0.0382  0.0990 -0.0264
  464W        W 1154   1.801   1.171   9.653 -0.0876 -0.0728  0.1200
  465W        W 1155   1.492   1.105  10.044 -0.0709 -0.2385  0.1329
  466W        W 1156   1.045   2.134   2.784  0.4281  0.2884 -0.2188
  467W        W 1157   3.843   2.487   0.759 -0.1429  0.0255 -0.0584
  468W        W 1158   2.840   1.014   9.581  0.2273 -0.1374 -0.2471
  469W        W 1159   1.352   4.473   8.328 -0.0476 -0.0622  0.0202
  470W        W 1160   1.072   1.449   7.578  0.1767 -0.4322 -0.0459
  471W        W 1161   0.304   1.298   1.472 -0.2330 -0.0694  0.2930
  472W        W 1162   3.636   1.032  10.422  0.2144 -0.0006  0.2472
  473W        W 1163   3.185   3.808   7.859  0.4595  0.0452 -0.2546
  474W        W 1164   0.557   2.564   2.073 -0.2753  0.1959 -0.1213
  475W        W 1165   1.458   0.911   9.363 -0.1665 -0.1185  0.1355
  476W        W 1166   3.760   1.046  11.023  0.2756  0.1283 -0.0131
  477W        W 1167   4.465   3.740   8.398 -0.0490  0.4976  0.1026
  478W        W 1168   1.545   1.708   2.146 -0.0199  0.0147 -0.1652
  479W        W 1169   1.940   3.338   8.082  0.0647  0.2067 -0.1099
  480W        W 1170   1.624   0.434   3.385  0.2716  0.1696  0.1051
  481W        W 1171   1.796   1.794   4.083 -0.1400  0.2135  0.2242
  482W        W 1172   2.463   2.310   1.318  0.2496  0.0023  0.0456
  483W        W 1173   1.928   3.504   9.063 -0.2889 -0.1529  0.1524
  484W        W 1174   4.380   2.374  11.158 -0.0445  0.2527 -0.0798
  485W        W 1175   3.424   0.047   8.893  0.0097  0.0849 -0.0838
  486W        W 1176   4.148   4.355   0.958 -0.0362 -0.0715 -0.1929
  487W        W 1177   2.736   2.469   8.622 -0.0069  0.1105  0.2495
  488W        W 1178   1.711   3.550   0.313  0.3645 -0.4854 -0.1066
  489W        W 1179   4.378   4.030   0.141  0.0151  0.1828 -0.0309
  490W        W 1180   2.269   1.576   2.076 -0.3151  0.2957 -0.1191
  491W        W 1181   0.289   3.652   4.130 -0.0579  0.0773  0.2789
  492W        W 1182   2.939   2.725   9.540  0.1153  0.0592 -0.1655
  493W        W 1183   2.600   1.638   0.880  0.3096 -0.1778  0.2130
  494W        W 1184   2.031   0.043  10.324 -0.2904  0.0649 -0.0854
  495W        W 1185   4.349   2.461   0.660 -0.2980  0.1018  0.0955
  496W        W 1186   2.808   0.807   0.410 -0.0556 -0.0423  0.4173
  497W        W 1187   0.788   2.119   3.251  0.1427  0.2244 -0.1113
  498W        W 1188   4.052   1.385   9.185  0.1505 -0.2289  0.2503
  499W        W 1189   1.579   1.450   7.754  0.6256 -0.1476  0.1338
  500W        W 1190   3.871   0.177   3.512 -0.0445  0.1522  0.1509
  501W        W 1191   3.574   1.366  10.012  0.0400 -0.0929  0.0944
  502W        W 1192   0.286   0.620   0.865 -0.2329 -0.2180 -0.0085
  503W        W 1193   1.763   2.865  11.479  0.1069  0.0633  0.0775
  504W        W 1194   2.859   4.196   7.768 -0.4264 -0.2875  0.0698
  505W        W 1195   4.152   2.808   8.831 -0.2025 -0.2299  0.1913
  506W        W 1196   3.724   0.518   2.640 -0.0839 -0.0320 -0.1531
  507W        W 1197   3.975   1.345  10.689 -0.3483 -0.0093  0.1264
  508W        W 1198   2.365   3.274   9.779  0.1660 -0.1062 -0.2124
  509W        W 1199   3.311   2.589   9.244  0.0792  0.1799  0.1409
  510W        W 1200   1.248   1.632   3.248  0.0962 -0.0413  0.0126
  511W        W 1201   1.971   3.286   9.507  0.1014  0.2114  0.0430
  512W        W 1202   0.570   1.929   8.716  0.0138 -0.4128 -0.0032
  513W        W 1203   2.589   4.350   1.950 -0.1920  0.2920 -0.0138
  514W        W 1204   2.832   3.997   1.697  0.2729 -0.3326 -0.0099
  515W        W 1205   0.134   2.102  10.205  0.1867 -0.1822  0.2944
  516W        W 1206   1.500   2.175   2.489 -0.6329  0.0069  0.0786
  517W        W 1207   0.178   1.943   9.183  0.0491  0.0697 -0.2201
  518W        W 1208   0.720   3.656   8.816  0.0198 -0.0427  0.0602
  519W        W 1209   1.504   0.402   9.224  0.2518 -0.1906 -0.3880
  520W        W 1210   2.849   3.898   2.164 -0.1185 -0.3558  0.0188
  521W        W 1211   1.960   0.484   9.360  0.0120 -0.2286  0.0392
  522W        W 1212   4.331   4.034   1.250  0.1142 -0.1138 -0.1626
  523W        W 1213   3.571   1.290   0.466 -0.3462  0.2759  0.1958
  524W        W 1214   3.100   0.676   7.507  0.2405  0.4111  0.2376
  525W        W 1215   2.940   1.044   2.718  0.2435  0.2415  0.3233
  526W        W 1216   2.537   1.425   7.848 -0.0717 -0.0249  0.1791
  527W        W 1217   4.151   2.914  10.731  0.2197 -0.0991 -0.3323
  528W        W 1218   2.574   1.684   0.025  0.1329 -0.0849 -0.2660
  529W        W 1219   1.123   2.234  10.129  0.0405 -0.0851  0.0197
  530W        W 1220   3.766   1.765   9.311  0.5412 -0.2308 -0.1614
  531W        W 1221   4.386   1.469   1.253 -0.3028  0.3074 -0.0143
  532W        W 1222   3.286   4.153   7.351 -0.0895  0.2522 -0.0478
  533W        W 1223   0.379   3.883   3.657  0.0732 -0.4242  0.1142
  534W        W 1224   3.286   1.775   2.745  0.4859 -0.2676 -0.2034
  535W        W 1225   1.771   3.626   4.079 -0.0982 -0.0734 -0.3634
  536W        W 1226   4.288   0.226   1.780 -0.0503 -0.2057 -0.0456
  537W        W 1227   0.678   1.991   1.798 -0.0796 -0.3106 -0.0134
  538W        W 1228   2.893   3.246   9.567 -0.0568  0.3258  0.4470
  539W        W 1229   1.527   0.963   0.881 -0.2219 -0.2765  0.1626
  540W        W 1230   4.191   0.274  10.717 -0.0852  0.0404  0.2242
  541W        W 1231   1.946   0.315   3.083 -0.4355 -0.1240 -0.0810
  542W        W 1232   2.765   1.946  11.116  0.1093 -0.1535  0.2927
  543W        W 1233   1.964   0.200   8.109  0.1367  0.1555 -0.0423
  544W        W 1234   2.954   1.417   9.275  0.1394  0.2791  0.1760
  545W        W 1235   2.473   2.166   0.862 -0.0806 -0.0407 -0.2614
  546W        W 1236   2.347   0.148   9.848 -0.2236  0.1469 -0.0022
  547W        W 1237   0.804   1.531  10.153  0.3191  0.0846  0.0149
  548W        W 1238   1.293   0.217   9.923 -0.0085 -0.1413  0.1021
  549W        W 1239   1.758   0.082  10.743  0.0317 -0.1526  0.0931
  550W        W 1240   2.810   1.485  10.679  0.4376 -0.0479 -0.2518
  551W        W 1241   2.846   0.616   1.417 -0.1205 -0.0749 -0.0175
  552W        W 1242   0.461   1.329   0.143 -0.0525 -0.1099  0.0786
  553W        W 1243   0.744   4.238   9.239 -0.0821 -0.3005 -0.2069
  554W        W 1244   3.980   2.436   8.559 -0.3376 -0.0702 -0.0124
  555W        W 1245   3.450   4.455   0.329  0.1228 -0.2569  0.0265
  556W        W 1246   2.967   2.134   2.878 -0.2562 -0.2140 -0.3895
  557W        W 1247   0.674   1.319   1.100  0.1689  0.0576 -0.4778
  558W        W 1248   2.785   1.510   2.053 -0.2064 -0.0023  0.1099
  559W        W 1249   3.468   0.125   2.229 -0.2977  0.0877  0.0139
  560W        W 1250   4.435   4.477   2.186 -0.1450 -0.1996 -0.1347
  561W        W 1251   2.604   4.277  11.089  0.1993 -0.0735 -0.4545
  562W        W 1252   0.775   3.509   4.034  0.2517 -0.0229 -0.3255
  563W        W 1253   4.075   1.447  11.341  0.4012 -0.3202 -0.0363
  564W        W 1254   3.301   1.053   9.606 -0.2164 -0.2074  0.3968
  565W        W 1255   3.460   3.106   1.898  0.2291 -0.4114  0.1644
  566W        W 1256   4.279   3.330   3.407 -0.0369 -0.0341 -0.0078
  567W        W 1257   0.621   1.665   2.235  0.3896 -0.3125 -0.1536
  568W        W 1258   3.108   0.565   7.995  0.2464 -0.0189 -0.0845
  569W        W 1259   3.763   0.979   1.641 -0.1426  0.0850  0.0416
  570W        W 1260   4.450   3.717   2.045  0.0769 -0.1533 -0.1443
  571W        W 1261   2.400   3.932   0.835 -0.1416  0.1420  0.0178
  572W        W 1262   3.113   0.569   9.549  0.1885 -0.0331 -0.0935
  573W        W 1263   0.701   1.089   3.459  0.2208 -0.0014  0.0774
  574W        W 1264   1.160   3.617   8.543  0.2624  0.0831 -0.1693
  575W        W 1265   2.576   2.750   1.878 -0.4011  0.1222  0.2866
  576W        W 1266   1.559   2.145   9.781 -0.3310 -0.0823 -0.0666
  577W        W 1267   1.279   3.042   3.285  0.0023  0.1130 -0.0980
  578W        W 1268   2.580   1.425   1.349  0.1903  0.1971 -0.1624
  579W        W 1269   1.006   3.068  11.241 -0.0254  0.0152  0.1808
  580W        W 1270   0.674   0.319   3.839 -0.0709 -0.1866 -0.1401
  581W        W 1271   0.116   4.400   3.619  0.0146 -0.2324  0.0183
  582W        W 1272   1.294   3.648   0.566  0.1049 -0.0199 -0.0601
  583W        W 1273   2.074   4.340   9.556 -0.1259 -0.0128  0.0741
  584W        W 1274   3.720   1.534   8.807 -0.1494 -0.0829 -0.0747
  585W        W 1275   3.367   2.503   9.845 -0.6947 -0.1323  0.1173
  586W        W 1276   2.976   0.214   1.120  0.0459  0.2360  0.0131
  587W        W 1277   4.436   1.869   1.609 -0.3801  0.0041 -0.3225
  588W        W 1278   2.685   3.567   9.994  0.1340  0.3550  0.0785
  589W        W 1279   0.675   3.650   1.251 -0.1447  0.0415  0.1247
  590W        W 1280   3.319   4.459   3.711  0.1095 -0.1207 -0.1054
  591W        W 1281   0.936   3.394   0.874  0.0484  0.0158  0.2375
  592W        W 1282   1.169   3.327   2.073 -0.2601  0.0989 -0.1150
  593W        W 1283   3.108   2.579   0.186  0.3293 -0.0323 -0.1451
  594W        W 1284   3.437   0.949   2.714 -0.2391 -0.0637 -0.1825
  595W        W 1285   0.410   0.315   0.014  0.1435 -0.0551 -0.0401
  596W        W 1286   0.883   1.703   9.574  0.1617  0.0701  0.1104
  597W        W 1287   3.096   2.846   7.826 -0.0825 -0.1287 -0.0766
  598W        W 1288   0.182   0.462   8.383 -0.3093  0.1477  0.0809
  599W        W 1289   4.150   2.638   1.159  0.0422 -0.1317 -0.5179
  600W        W 1290   0.227   0.662   9.710  0.1539 -0.0135 -0.0174
  601W        W 1291   0.097   0.595  11.218  0.0166  0.0262 -0.1793
  602W        W 1292   1.270   2.609   1.236 -0.2064 -0.0174  0.0019
  603W        W 1293   0.279   3.787   2.414  0.0308 -0.0416  0.2123
  604W        W 1294   2.153   2.174   2.232  0.1344  0.0209  0.0988
  605W        W 1295   0.361   2.447   3.995  0.1837  0.1620 -0.0010
  606W        W 1296   3.685   3.571   9.132 -0.1979 -0.2012  0.0605
  607W        W 1297   0.727   2.754   4.082  0.1082  0.0609 -0.0100
  608W        W 1298   4.233   1.460   8.620  0.2590  0.0135 -0.1134
  609W        W 1299   4.280   4.216   8.945 -0.2005 -0.1699 -0.2215
  610W        W 1300   3.580   1.398   2.553  0.0645  0.0742  0.3252
  611W        W 1301   2.882   1.675   3.662 -0.2179 -0.0151  0.1252
  612W        W 1302   4.448   1.199  10.494  0.1430  0.0110 -0.0600
  613W        W 1303   3.930   1.165   3.058 -0.0536  0.4069  0.1716
  614W        W 1304   3.485   4.123   2.256  0.3110 -0.1144 -0.1328
  615W        W 1305   4.213   0.853   8.401 -0.0187 -0.0538 -0.0639
  616W        W 1306   0.775   0.323  10.043 -0.2635  0.4013 -0.0140
  617W        W 1307   1.427   1.881   3.753 -0.0798  0.1123  0.1331
  618W        W 1308   3.287   3.913   0.942 -0.0219 -0.2760  0.0864
  619W        W 1309   2.011   0.837   9.946  0.4067 -0.0592 -0.2039
  620W        W 1310   3.693   4.315   9.655 -0.1505 -0.0331 -0.1605
  621W        W 1311   0.267   3.354  10.559  0.2197  0.1231  0.0180
  622W        W 1312   4.420   1.127  11.041  0.1843  0.0230  0.0981
  623W        W 1313   0.213   1.900   2.381  0.1976 -0.0604 -0.1097
  624W        W 1314   2.435   0.231   2.807 -0.3001  0.0007 -0.1562
  625W        W 1315   3.871   4.474   2.011 -0.0445  0.3227 -0.0347
  626W        W 1316   4.476   0.064   4.214  0.0739  0.1111  0.1806
  627W        W 1317   0.962   0.344   1.071  0.0093 -0.0714  0.1201
  628W        W 1318   3.641   4.304   1.080  0.2326 -0.0146  0.1354
  629W        W 1319   1.292   0.111   1.444  0.1143 -0.2142 -0.2753
  630W        W 1320   0.861   3.712   0.343 -0.0403 -0.1238  0.0988
  631W        W 1321   2.738   3.008  11.482  0.1706 -0.1902  0.0759
  632W        W 1322   2.087   3.293   2.927  0.1114  0.2262  0.0745
  633W        W 1323   2.873   1.833   9.521  0.0323 -0.1829 -0.2345
  634W        W 1324   2.071   3.044  10.640  0.1456 -0.0029  0.2661
  635W        W 1325   0.005   3.010   0.408  0.0360 -0.3759  0.2208
  636W        W 1326   2.791   3.754   8.831  0.0483  0.0867  0.0324
  637W        W 1327   3.725   1.903   2.867  0.1083  0.1486 -0.2557
  638W        W 1328   0.465   2.004   0.083 -0.0693  0.0736  0.3300
  639W        W 1329   3.661   2.484   1.257 -0.3351  0.2275  0.3106
  640W        W 1330   4.415   3.677   2.799 -0.2025  0.0126  0.2342
  641W        W 1331   0.655   1.261   8.205  0.5022  0.0995  0.0992
  642W        W 1332   3.259   2.289   2.460 -0.2022 -0.3131 -0.0963
  643W        W 1333   4.384   3.187   9.787 -0.1725 -0.0886 -0.1664
  644W        W 1334   1.665   2.066   2.951  0.0791 -0.1350  0.1987
  645W        W 1335   1.192   2.964   0.878  0.2310 -0.1691  0.0054
  646W        W 1336   2.551   2.605   0.394 -0.0508 -0.0188 -0.3467
  647W        W 1337   4.370   4.149   1.773 -0.1800 -0.1806 -0.1489
  648W        W 1338   0.931   1.108   9.175  0.0025 -0.1100  0.4406
  649W        W 1339   0.505   4.486  11.193 -0.0767 -0.0146  0.2421
  650W        W 1340   1.166   0.138   3.420 -0.2515  0.2263  0.0708
  651W        W 1341   1.285   2.573   8.380 -0.1608 -0.2208  0.0431
  652W        W 1342   2.975   3.359   3.452  0.1559 -0.1806  0.0281
  653W        W 1343   3.923   3.845   2.077 -0.0574  0.2394  0.2744
  654W        W 1344   4.028   4.055   8.551  0.2507 -0.0322  0.0875
  655W        W 1345   2.409   4.128   0.365  0.0092  0.2256 -0.0891
  656W        W 1346   1.972   0.342   2.193  0.3800  0.0783 -0.0604
  657W        W 1347   3.841   2.634   8.077 -0.1018 -0.1885  0.0116
  658W        W 1348   3.697   3.675   2.500 -0.0714 -0.3182  0.1072
  659W        W 1349   2.871   2.283   9.300 -0.0912 -0.0026 -0.1024
  660W        W 1350   3.896   3.589   3.598 -0.5589  0.0516 -0.1755
  661W        W 1351   1.322   2.834   8.907  0.0150  0.2040  0.0949
  662W        W 1352   2.983   1.391   9.891 -0.2255  0.1869  0.3719
  663W        W 1353   1.912   4.279   7.759 -0.0143 -0.0927  0.3677
  664W        W 1354   2.146   4.306   3.116 -0.0669  0.0296 -0.0775
  665W        W 1355   3.691   2.598   0.291 -0.1309 -0.2116  0.2223
  666W        W 1356   3.548   4.125   1.761 -0.3382 -0.5076 -0.1247
  667W        W 1357   1.926   3.232   8.535 -0.0830  0.1482 -0.2965
  668W        W 1358   4.462   1.780   0.848  0.3453  0.2483 -0.0724
  669W        W 1359   3.712   2.691   9.563 -0.0101  0.5017 -0.1098
  670W        W 1360   2.877   3.427   0.152 -0.2792  0.0456 -0.0594
  671W        W 1361   0.021   3.344   9.101  0.2526  0.0530  0.1450
  672W        W 1362   3.523   3.583   1.942 -0.0081 -0.1086  0.0741
  673W        W 1363   2.915   2.327   8.054 -0.0954 -0.4050  0.0192
  674W        W 1364   1.491   2.569  10.137 -0.3391 -0.1558  0.0277
  675W        W 1365   2.496   3.014   2.812  0.1003  0.0955 -0.0892
  676W        W 1366   2.285   1.218   2.590  0.0121  0.0518  0.1216
  677W        W 1367   2.574   0.648   9.742 -0.0949 -0.2094  0.0343
  678W        W 1368   1.548   4.340  11.416  0.1532 -0.0129 -0.1057
  679W        W 1369   2.073   0.537   1.170 -0.0458  0.0442  0.2339
  680W        W 1370   4.230   2.409  10.356  0.3590  0.3464 -0.0688
  681W        W 1371   0.616   0.311   8.133  0.2023 -0.0016  0.2204
  682W        W 1372   3.790   0.800   0.613 -0.0254  0.0772 -0.0004
  683W        W 1373   1.299   2.166   3.377  0.2909  0.1376 -0.1702
  684W        W 1374   2.790   2.088   3.413  0.0563  0.0918  0.3415
  685W        W 1375   1.934   0.969   9.081  0.1600  0.2407 -0.2795
  686W        W 1376   2.177   0.471   8.520 -0.2665 -0.2580  0.2221
  687W        W 1377   1.383   2.684   7.737  0.2261 -0.0450  0.0781
  688W        W 1378   3.567   0.861   2.216  0.1347 -0.0164  0.2856
  689W        W 1379   0.115   0.603   1.652  0.0228 -0.0435 -0.1337
  690W        W 1380   4.167   2.331   1.613  0.0328  0.1052  0.1837
  691W        W 1381   3.078   4.004  10.962 -0.5150 -0.1595 -0.0087
  692W        W 1382   3.255   1.957   3.255 -0.0639  0.1473 -0.1871
  693W        W 1383   0.156   0.251   3.125 -0.2549 -0.1960 -0.1495
  694W        W 1384   1.895   3.107   1.589  0.1368  0.1357  0.2374
  695W        W 1385   1.493   1.146  11.094 -0.1551  0.2885 -0.0103
  696W        W 1386   3.708   0.731   3.147 -0.0668 -0.4973 -0.1372
  697W        W 1387   2.500   0.224   8.818  0.0847  0.1593 -0.0084
  698W        W 1388   1.549   0.009   2.213 -0.3432 -0.0373 -0.0021
  699W        W 1389   3.252   1.999   7.978 -0.2791 -0.0300 -0.1213
  700W        W 1390   3.536   2.592   2.130  0.0933  0.0290  0.5014
  701W        W 1391   1.029   2.288   1.956  0.0571 -0.0600 -0.1503
  702W        W 1392   0.504   2.440  10.432  0.2237 -0.2698  0.1615
  703W        W 1393   2.005   2.494   0.403 -0.1840 -0.1220 -0.1525
  704W        W 1394   4.363   1.167   9.809  0.1089 -0.4392 -0.2724
  705W        W 1395   0.594   0.507   9.447 -0.4363  0.3048 -0.4154
  706W        W 1396   2.238   2.937   0.135  0.0720 -0.0241  0.5292
  707W        W 1397   2.206   0.089  11.021 -0.0163 -0.0470  0.1210
  708W        W 1398   0.303   1.411   0.655  0.0784  0.1935  0.2026
  709W        W 1399   2.871   4.352  10.631 -0.0292 -0.1336 -0.3450
  710W        W 1400   2.828   2.712   2.589  0.0757  0.0280 -0.1430
  711W        W 1401   1.812   0.888   3.464 -0.0327 -0.4484 -0.0454
  712W        W 1402   1.704   0.450  10.396 -0.0651 -0.1681  0.1842
  713W        W 1403   2.971   0.325  10.718  0.1039  0.0473  0.5393
  714W        W 1404   2.677   0.612   0.909 -0.1205  0.0055 -0.0628
  715W        W 1405   3.430   3.526   3.438 -0.1089  0.0631 -0.0025
  716W        W 1406   0.241   3.609   9.659  0.1386 -0.1199 -0.3619
  717W        W 1407   0.281   4.081   0.967  0.0427 -0.1360 -0.1038
  718W        W 1408   3.650   2.016   8.633 -0.1860  0.0419  0.2443
  719W        W 1409   3.951   0.008   9.255  0.0048  0.0945 -0.1642
  720W        W 1410   3.524   0.785   9.295 -0.2075 -0.1417  0.1029
  721W        W 1411   1.512   3.165   4.223 -0.2431  0.1494 -0.0882
  722W        W 1412   3.706   2.780   9.079 -0.3173  0.0506 -0.1418
  723W        W 1413   0.514   4.043   3.198 -0.0012  0.3089  0.4184
  724W        W 1414   0.721   2.323   1.169  0.1068  0.0364  0.0474
  725W        W 1415   0.493   0.015   2.733  0.1017 -0.2161 -0.2023
  726W        W 1416   3.861   4.391   0.071  0.0889 -0.0714 -0.1020
  727W        W 1417   4.441   3.124   2.004  0.0854  0.0950 -0.0393
  728W        W 1418   2.519   2.560   7.157 -0.1429 -0.0268 -0.1307
  729W        W 1419   0.703   0.835   0.937 -0.5495  0.0461 -0.1865
  730W        W 1420   0.789   0.432   7.663 -0.1421  0.1271 -0.1062
  731W        W 1421   3.217   0.656   0.055  0.3269  0.2681  0.1983
  732W        W 1422   4.067   2.383   9.367  0.2949  0.0821 -0.3394
  733W        W 1423   3.071   0.559   1.967 -0.0822  0.0669 -0.2713
  734W        W 1424   4.160   0.884  11.335  0.2566 -0.2108 -0.2137
  735W        W 1425   3.259   0.551   2.448 -0.2041  0.0922 -0.0184
  736W        W 1426   3.048   2.601   2.111 -0.0354  0.1254 -0.4863
  737W        W 1427   3.999   2.700   2.127  0.2124 -0.1676 -0.2621
  738W        W 1428   2.948   2.787  10.471 -0.3450  0.1843 -0.2182
  739W        W 1429   1.135   1.742   1.879 -0.0883 -0.4623 -0.0425
  740W        W 1430   3.949   3.005   8.423 -0.0974  0.0753 -0.0268
  741W        W 1431   1.449   3.409   1.692 -0.1029 -0.1194  0.0675
  742W        W 1432   3.749   1.765   2.225 -0.1185  0.2235 -0.1152
  743W        W 1433   1.157   2.349   0.308  0.1393  0.0573 -0.3243
  744W        W 1434   1.379   4.240   7.850  0.2051 -0.1412  0.0090
  745W        W 1435   3.778   4.148   0.537  0.0672  0.4603 -0.0740
  746W        W 1436   2.139   4.366   3.605  0.0756  0.0514  0.3306
  747W        W 1437   3.996   3.316   2.893  0.1387 -0.1561 -0.1358
  748W        W 1438   3.015   3.248   8.070 -0.1165  0.2214  0.2145
  749W        W 1439   0.753   3.614   2.162 -0.1646  0.2331 -0.2627
  750W        W 1440   2.517   4.301   2.492  0.2867  0.1828  0.0382
  751W        W 1441   1.613   2.854   8.197  0.0216 -0.3945 -0.1973
  752W        W 1442   0.256   4.267   9.072  0.0702 -0.1935  0.2154
  753W        W 1443   0.197   0.615   0.281 -0.3047 -0.0842 -0.0308
  754W        W 1444   4.026   3.494   9.995 -0.2785 -0.0353 -0.0663
  755W        W 1445   3.243   1.768   9.059  0.1715 -0.1325 -0.0188
  756W        W 1446   0.138   1.959  11.200 -0.2489 -0.1694 -0.1087
  757W        W 1447   0.723   1.569  10.630 -0.4471 -0.0343  0.0941
  758W        W 1448   1.770   1.627   1.276  0.1566  0.2454  0.0931
  759W        W 1449   1.231   2.643   3.636 -0.0628 -0.2203  0.0634
  760W        W 1450   0.639   2.578   9.558 -0.1835 -0.1072  0.0540
  761W        W 1451   4.436   2.196   1.198 -0.0653  0.3298 -0.1361
  762W        W 1452   4.078   1.665   0.391 -0.0077 -0.2426 -0.2873
  763W        W 1453   1.438   3.253   3.737 -0.0544  0.1705 -0.0973
  764W        W 1454   4.302   1.327   0.767  0.0924  0.1353 -0.0563
  765W        W 1455   3.639   0.503   0.234  0.0214  0.2859  0.2847
  766W        W 1456   0.540   3.713   0.753 -0.0548  0.1959  0.0600
  767W        W 1457   1.661   0.610   0.337  0.2347 -0.2887 -0.1484
  768W        W 1458   1.876   0.125   2.620 -0.1979  0.2419 -0.1438
  769W        W 1459   3.519   1.459   3.176  0.0049 -0.0510 -0.2751
  770W        W 1460   0.765   4.449   0.082  0.0061  0.3290 -0.2392
  771W        W 1461   0.421   1.611   9.754 -0.0326  0.1823  0.0516
  772W        W 1462   0.353   1.492   8.478  0.1413 -0.0035  0.3623
  773W        W 1463   3.928   0.305   1.069 -0.2956 -0.1135  0.1868
  774W        W 1464   1.200   1.171   7.969  0.0699  0.2389 -0.0869
  775W        W 1465   1.651   3.826   0.838  0.1575  0.0872 -0.1473
  776W        W 1466   1.478   0.042   9.524  0.0058  0.3009 -0.4825
  777W        W 1467   0.117   0.444   2.657  0.0146  0.2373 -0.1008
  778W        W 1468   3.488   2.331   3.045  0.1949 -0.2491  0.1110
  779W        W 1469   2.517   1.850   3.087 -0.0846 -0.1172  0.0256
  780W        W 1470   0.642   0.431   3.097  0.1360  0.2622  0.0023
  781W        W 1471   2.453   0.178   3.304  0.1613 -0.0343 -0.0043
  782W        W 1472   3.514   1.734  10.464  0.0909 -0.0057 -0.0398
  783W        W 1473   3.486   0.294  10.695 -0.2003 -0.1714 -0.0150
  784W        W 1474   0.040   3.792   3.325  0.0716  0.1659 -0.1994
  785W        W 1475   3.876   3.207   0.010 -0.0573 -0.3125 -0.0798
  786W        W 1476   2.861   2.383   1.645  0.2119  0.0753 -0.0445
  787W        W 1477   1.445   0.831   2.741  0.0666 -0.0486 -0.1724
  788W        W 1478   1.561   4.162   1.307  0.2864 -0.0412 -0.2084
  789W        W 1479   3.568   2.881   3.089 -0.2291 -0.0835  0.4157
  790W        W 1480   2.415   3.230   8.276  0.2291 -0.2248  0.1795
  791W        W 1481   0.037   3.107   7.737  0.2765 -0.0377  0.1205
  792W        W 1482   1.460   0.074   8.784  0.0527  0.1126 -0.2595
  793W        W 1483   0.441   1.129   9.273 -0.0781  0.1001  0.3609
  794W        W 1484   2.969   1.420  11.235 -0.5217  0.3912  0.0493
  795W        W 1485   4.002   3.990   9.400  0.3600 -0.2999 -0.0405
  796W        W 1486   4.468   4.297  10.836 -0.0799  0.1497 -0.3969
  797W        W 1487   3.058   3.502   1.965  0.1183  0.2230  0.3308
  798W        W 1488   1.897   2.152   1.466 -0.2254 -0.2748 -0.1146
  799W        W 1489   1.868   0.967   7.668 -0.0133  0.3064  0.0199
  800W        W 1490   2.657   0.253  11.125 -0.1295  0.0596  0.1020
  801W        W 1491   2.251   4.174  10.741 -0.0839 -0.0666  0.0550
  802W        W 1492   4.061   1.963  11.138  0.1111 -0.2421 -0.0371
  803W        W 1493   2.732   4.251   8.861 -0.0708  0.1480 -0.0538
  804W        W 1494   1.840   0.177   9.886 -0.0865  0.0820  0.0871
  805W        W 1495   0.207   2.654   1.164  0.0459  0.0525 -0.1873
  806W        W 1496   4.343   3.749   3.763 -0.0946  0.2032  0.3372
  807W        W 1497   1.364   1.444   1.582 -0.0768  0.2805 -0.2795
  808W        W 1498   2.061   1.725   9.595 -0.0960  0.3657  0.0050
  809W        W 1499   1.834   1.388   8.721  0.3332 -0.0475  0.0121
  810W        W 1500   2.457   2.502   9.505 -0.0530  0.3052  0.1190
  811W        W 1501   0.303   1.236   2.775  0.1227  0.0647  0.1130
  812W        W 1502   0.125   0.049   0.931 -0.1906  0.1397 -0.1102
  813W        W 1503   2.284   2.796   8.572  0.2444  0.0719  0.0463
  814W        W 1504   2.166   1.879   1.083 -0.1479  0.1077 -0.2851
  815W        W 1505   2.752   0.580   2.635  0.1082  0.2879 -0.3513
  816W        W 1506   2.010   2.222   9.446 -0.0901 -0.0889 -0.0012
  817W        W 1507   3.222   4.407   0.802 -0.0243 -0.0469  0.3561
  818W        W 1508   1.508   3.321   8.835 -0.0411  0.3249 -0.0287
  819W        W 1509   2.668   3.118   8.672  0.1724  0.1049 -0.4321
  820W        W 1510   2.050   2.278  10.041  0.1962  0.1476  0.1482
  821W        W 1511   3.683   4.433   8.426 -0.3461  0.2216  0.0220
  822W        W 1512   0.067   0.147   8.831 -0.2325  0.1264 -0.1499
  823W        W 1513   2.254   4.320   9.070 -0.0655 -0.0577 -0.0132
  824W        W 1514   3.322   3.303  10.593  0.1943 -0.1410  0.6730
  825W        W 1515   3.795   3.241  10.410  0.1559 -0.0669  0.1457
  826W        W 1516   2.172   4.061   1.794 -0.0299  0.1676 -0.1347
  827W        W 1517   3.699   2.949   0.997 -0.0544  0.1424 -0.0534
  828W        W 1518   3.527   1.388  11.400  0.1709 -0.1761  0.4559
  829W        W 1519   0.869   3.586  11.068 -0.1508  0.2311 -0.3261
  830W        W 1520   3.766   4.287   3.191 -0.3226  0.1715  0.0919
  831W        W 1521   3.865   2.979   1.476 -0.3069  0.2413 -0.0147
  832W        W 1522   3.443   0.150  11.401 -0.2688 -0.0109  0.1473
  833W        W 1523   3.154   2.240  10.233 -0.0633 -0.0300 -0.1680
  834W        W 1524   4.367   1.018   9.322 -0.0746  0.2460  0.1048
  835W        W 1525   1.809   1.252   0.168 -0.0912  0.0931 -0.0282
  836W        W 1526   1.997   2.403   2.697  0.0718  0.0780  0.1368
  837W        W 1527   1.128   0.636   0.771  0.2571 -0.4015  0.1016
  838W        W 1528   3.933   4.449   1.468 -0.1236 -0.0201 -0.0577
  839W        W 1529   0.882   4.365   3.000  0.1257  0.1292  0.4173
  840W        W 1530   0.508   3.824   9.258 -0.2370  0.0627 -0.0842
  841W        W 1531   2.539   0.336   4.145 -0.1927  0.1008 -0.0825
  842W        W 1532   2.169   2.753   3.077 -0.2402 -0.2868  0.2352
  843W        W 1533   2.397   0.183   9.350  0.1983 -0.0100  0.0033
  844W        W 1534   1.246   2.605   2.635 -0.0123 -0.0639  0.2761
  845W        W 1535   1.467   1.815   8.662  0.0952 -0.1884  0.1750
  846W        W 1536   1.019   4.453   2.446  0.1983  0.0524 -0.1692
  847W        W 1537   2.778   2.024   8.880 -0.0391  0.1085 -0.0831
  848W        W 1538   2.477   2.766  10.452  0.2541 -0.3851  0.1336
  849W        W 1539   3.150   4.312   1.388 -0.2281  0.0323  0.1242
  850W        W 1540   3.690   3.856   1.251  0.1744 -0.0165 -0.0550
  851W        W 1541   2.505   0.232   0.623 -0.0152  0.3069  0.0783
  852W        W 1542   0.246   1.633   1.900  0.0675  0.1634  0.0870
  853W        W 1543   1.329   0.908   1.712 -0.0234  0.0590 -0.2611
  854W        W 1544   3.340   0.352   8.516  0.0842 -0.4273 -0.0908
  855W        W 1545   1.393   0.549  11.393 -0.0489 -0.1412 -0.1803
  856W        W 1546   2.278   2.237   8.635 -0.0382 -0.0924 -0.1718
  857W        W 1547   3.908   0.249   9.831  0.1357  0.1390  0.1618
  858W        W 1548   0.536   0.684  11.019  0.2754 -0.0129 -0.0617
  859W        W 1549   3.430   3.411   8.281 -0.2265  0.2210  0.0272
  860W        W 1550   2.160   0.719   1.638 -0.3580 -0.1604 -0.1180
  861W        W 1551   3.533   1.239   9.170  0.2252 -0.0144 -0.1037
  862W        W 1552   3.271   1.463  10.802 -0.0847 -0.0827  0.1014
  863W        W 1553   1.805   0.467   8.864  0.0229  0.2294  0.0055
  864W        W 1554   4.006   3.319  11.009 -0.0572 -0.0666 -0.0773
  865W        W 1555   1.516   1.487  10.734 -0.0499  0.0043  0.0655
  866W        W 1556   0.318   2.428  11.354 -0.0660  0.1901 -0.0437
  867W        W 1557   3.324   3.065   0.105  0.0954  0.2898 -0.1969
  868W        W 1558   4.108   0.931   3.606  0.2294  0.1262  0.0968
  869W        W 1559   4.128   4.016   3.386 -0.0992 -0.0971  0.1341
  870W        W 1560   3.857   1.141   7.869 -0.0990  0.0476 -0.1919
  871W        W 1561   1.083   3.093   1.422  0.0369 -0.3481  0.0684
  872W        W 1562   4.014   1.318  10.179 -0.1288  0.1912 -0.1966
  873W        W 1563   2.735   3.901   0.065  0.0078  0.1981  0.0490
  874W        W 1564   1.275   3.521  10.490 -0.1946  0.0284 -0.1049
  875W        W 1565   0.299   2.280   0.858 -0.1043 -0.1538 -0.1971
  876W        W 1566   4.174   1.368   2.527  0.0622 -0.1089  0.2696
  877W        W 1567   0.627   2.495   0.179 -0.1528  0.2401  0.1082
  878W        W 1568   2.027   3.718  10.838  0.2031 -0.0461  0.0149
  879W        W 1569   3.804   1.573   8.200 -0.4082  0.3087 -0.2784
  880W        W 1570   1.528   3.760  10.839 -0.0370 -0.0689 -0.2619
  881W        W 1571   3.272   3.790   1.530  0.1672 -0.0920  0.0622
  882W        W 1572   0.222   0.871   3.154  0.1742 -0.2520  0.1008
  883W        W 1573   1.881   1.472   2.418 -0.1208  0.1068 -0.1504
  884W        W 1574   3.764   3.177   9.423  0.1940 -0.0662 -0.3888
  885W        W 1575   3.557   4.238  10.737 -0.1006 -0.0606 -0.2614
  886W        W 1576   0.919   0.425  10.858  0.1443  0.1637  0.0878
  887W        W 1577   0.532   1.988   3.731  0.2949 -0.2465  0.0996
  888W        W 1578   2.107   4.290   7.314  0.2384 -0.3933  0.0499
  889W        W 1579   3.553   1.643   1.284 -0.0873 -0.0617 -0.1851
  890W        W 1580   3.676   0.508  11.073 -0.2109  0.1814  0.0685
  891W        W 1581   4.374   2.802   1.575  0.0266 -0.2053  0.2346
  892W        W 1582   2.901   3.462   0.885 -0.1291 -0.1661  0.2247
  893W        W 1583   3.727   1.602  10.996 -0.0543  0.0211  0.0475
  894W        W 1584   2.266   3.844   3.405  0.0431 -0.1105 -0.0062
  895W        W 1585   4.355   3.679  11.137  0.0232  0.0719 -0.2405
  896W        W 1586   4.257   4.476   3.298  0.2025 -0.0997  0.1234
  897W        W 1587   0.950   3.580   1.717  0.1151 -0.1827  0.1248
  898W        W 1588   2.557   3.548   4.201  0.0690 -0.1906  0.2175
  899W        W 1589   1.577   3.067  10.325  0.3157 -0.0316 -0.0723
  900W        W 1590   2.603   3.374   7.291 -0.0944  0.1948  0.1152
  901W        W 1591   1.005   0.065   7.943 -0.0962 -0.1346 -0.2438
  902W        W 1592   0.865   0.273   8.619  0.3877  0.0486 -0.1505
  903W        W 1593   0.087   0.779  10.200  0.0178  0.0330  0.0024
  904W        W 1594   0.111   1.468  11.328  0.3178 -0.3827 -0.0790
  905W        W 1595   0.427   3.266   8.837 -0.2469 -0.0449 -0.2467
  906W        W 1596   0.961   1.782   3.679 -0.1231 -0.0742 -0.1130
  907W        W 1597   4.092   4.326  10.528  0.0060  0.3202  0.0976
  908W        W 1598   0.111   3.784   1.590  0.2538 -0.2161 -0.0749
  909W        W 1599   0.498   4.094  10.889  0.1106 -0.0424 -0.2874
  910W        W 1600   1.901   2.478   7.812 -0.0613  0.5237 -0.0140
  911W        W 1601   4.387   0.194   0.211 -0.0504 -0.2138 -0.4088
  912W        W 1602   3.233   1.653   2.117 -0.2246  0.0546  0.1014
  913W        W 1603   1.664   2.506   4.272 -0.0327 -0.1222  0.2215
  914W        W 1604   2.556   1.128   0.887 -0.0316  0.0138  0.3584
  915W        W 1605   1.944   3.076   9.952  0.1776 -0.1154 -0.1571
  916W        W 1606   1.080   0.483   8.242 -0.1178 -0.1560  0.1718
  917W        W 1607   1.348   2.797   1.689 -0.0095  0.1369  0.0537
  918W        W 1608   3.111   4.085   8.558  0.0012  0.0091 -0.0677
  919W        W 1609   0.657   0.518   0.484  0.1955  0.2744 -0.0178
  920W        W 1610   2.149   2.561  10.885 -0.0719  0.0299  0.0568
  921W        W 1611   3.918   0.604   7.789  0.3968 -0.2534 -0.0343
  922W        W 1612   3.789   3.614   8.077  0.0972  0.1160  0.1997
  923W        W 1613   1.508   3.897   8.874  0.0251 -0.1942 -0.1683
  924W        W 1614   0.700   3.490  10.531 -0.0488 -0.0754  0.0060
  925W        W 1615   3.252   4.006  10.442  0.1951  0.0450  0.0127
  926W        W 1616   3.452   3.414   7.785 -0.1690 -0.0500  0.1139
  927W        W 1617   3.318   2.111   1.932  0.1552 -0.0585 -0.2236
  928W        W 1618   3.948   0.127   0.546 -0.2397  0.3116 -0.2405
  929W        W 1619   3.635   4.017   3.603 -0.3237 -0.1266 -0.0936
  930W        W 1620   0.767   2.806   1.070 -0.0187  0.5080  0.3156
  931W        W 1621   0.375   3.622   2.949  0.0617  0.3900 -0.1860
  932W        W 1622   2.219   3.631   1.598 -0.2535  0.0274 -0.0113
  933W        W 1623   3.779   0.294  10.318 -0.1143  0.0717  0.1421
  934W        W 1624   2.473   2.004   9.728  0.0434  0.2089  0.0511
  935W        W 1625   2.569   4.485   0.001  0.1578  0.0083  0.2579
  936W        W 1626   1.120   4.090   0.131 -0.0263  0.4788  0.2034
  937W        W 1627   0.435   3.051   2.197  0.2489  0.2248 -0.2139
  938W        W 1628   3.536   1.168   1.013 -0.3242 -0.1646 -0.0714
  939W        W 1629   1.559   4.417  10.276 -0.0806  0.5248  0.0898
  940W        W 1630   2.322   2.636   0.969 -0.1424  0.0949 -0.3250
  941W        W 1631   1.785   4.133   8.319 -0.1050 -0.1755 -0.0924
  942W        W 1632   0.046   3.796  10.681 -0.4274  0.1226  0.1035
  943W        W 1633   1.985   1.866   8.506 -0.0261  0.1817  0.2559
  944W        W 1634   4.058   0.733  10.838  0.0190 -0.0742 -0.0746
  945W        W 1635   3.693   3.093   0.480  0.1433  0.1823 -0.1110
  946W        W 1636   0.653   2.958   8.361 -0.1281  0.0533 -0.0457
  947W        W 1637   2.327   1.572   8.308  0.0859 -0.0379 -0.2698
  948W        W 1638   2.940   3.361   1.402 -0.2328 -0.0402  0.0383
  949W        W 1639   1.852   3.957   9.277  0.0478  0.0120 -0.2469
  950W        W 1640   3.584   2.173  11.001 -0.0572 -0.2176  0.3236
  951W        W 1641   2.767   1.071   3.328  0.0606  0.1705  0.1854
  952W        W 1642   1.202   3.609  11.472  0.0448 -0.1268  0.0234
  953W        W 1643   1.861   4.106   2.656 -0.0408  0.3930 -0.2176
  954W        W 1644   4.171   4.469   8.247  0.0248  0.1329 -0.5324
  955W        W 1645   3.016   0.834  10.007  0.0386 -0.0268  0.2069
  956W        W 1646   2.803   1.605   8.607 -0.0755 -0.0322 -0.0493
  957W        W 1647   2.511   3.168   1.605 -0.2410 -0.1237 -0.1884
  958W        W 1648   4.203   0.819   0.872 -0.0867  0.1168 -0.0615
  959W        W 1649   0.497   0.639   1.350  0.5177  0.1759 -0.1843
  960W        W 1650   0.202   2.796   9.084  0.1288 -0.4033  0.0227
  961W        W 1651   3.280   2.118   1.410  0.2049  0.3069 -0.0307
  962W        W 1652   3.911   4.453   2.525 -0.2431  0.0429  0.1158
  963W        W 1653   3.264   3.754  11.386 -0.0989 -0.0734 -0.1723
  964W        W 1654   3.419   3.270  11.212 -0.1088  0.2043 -0.2043
  965W        W 1655   4.204   2.024   3.497  0.1493 -0.0124 -0.3367
  966W        W 1656   3.068   4.192   2.546 -0.0703  0.2727  0.2750
  967W        W 1657   4.116   3.884   0.845 -0.4259 -0.2879  0.0231
  968W        W 1658   4.138   4.281   9.972  0.0635 -0.0133  0.0621
  969W        W 1659   3.264   0.959  11.201 -0.0770  0.2455 -0.2688
  970W        W 1660   4.288   3.326   1.538 -0.0028  0.1980  0.2537
  971W        W 1661   0.860   4.131   3.708 -0.0513 -0.0644  0.0456
  972W        W 1662   3.737   2.302   2.510 -0.0115  0.1278 -0.0833
  973W        W 1663   1.357   2.949   9.852  0.0820  0.2413 -0.1654
  974W        W 1664   3.807   2.622   3.482 -0.2302 -0.1197 -0.2210
  975W        W 1665   2.025   4.387   1.387  0.0404 -0.1884  0.2104
  976W        W 1666   1.516   2.263   0.590 -0.3095  0.0735  0.2120
  977W        W 1667   2.790   0.768   8.795  0.0289  0.1891 -0.3106
  978W        W 1668   0.376   0.028   9.514  0.0229  0.1656 -0.0612
  979W        W 1669   1.252   0.202  10.556 -0.3501  0.0390 -0.2100
  980W        W 1670   0.362   3.596  11.073  0.2763  0.1959 -0.0650
  981W        W 1671   1.522   2.521   9.336  0.1642  0.0577  0.2931
  982W        W 1672   2.957   0.051   3.289  0.2634 -0.2038  0.0736
  983W        W 1673   3.661   2.995  10.797 -0.1287 -0.0113  0.2818
  984W        W 1674   1.576   3.033   9.298 -0.4521 -0.1271  0.1068
  985W        W 1675   3.074   0.942   8.405  0.1166 -0.0791 -0.2557
  986W        W 1676   1.493   1.206   3.184  0.2651  0.1978 -0.2005
  987W        W 1677   4.326   0.397   0.669  0.0156 -0.3480  0.1832
  988W        W 1678   3.663   2.236   9.153 -0.2705  0.0266 -0.1723
  989W        W 1679   3.963   2.855   4.010  0.1131 -0.1836 -0.1062
  990W        W 1680   2.628   1.128   8.262  0.0249  0.1283 -0.1011
  991W        W 1681   2.022   3.018   0.976  0.3778  0.1630 -0.1620
  992W        W 1682   4.412   1.264   1.816  0.0586  0.1414 -0.0407
  993W        W 1683   0.953   3.916   0.880 -0.0576 -0.3692  0.0489
  994W        W 1684   0.501   3.278   0.397  0.1732  0.1996  0.0243
  995W        W 1685   0.081   2.801  10.457 -0.1687 -0.2603 -0.0952
  996W        W 1686   3.730   0.478   8.916 -0.3270 -0.2234 -0.0311
  997W        W 1687   3.719   0.467   1.997  0.1853 -0.2102  0.0574
  998W        W 1688   1.213   4.141   9.776  0.0097 -0.0937  0.0880
  999W        W 1689   1.447   3.560   9.330  0.0044  0.1861 -0.3097
 1000W        W 1690   4.009   2.015  10.633 -0.0785  0.1993  0.0632
 1001W        W 1691   3.109   2.060  10.699 -0.0477 -0.0313  0.0958
 1002W        W 1692   2.341   2.677   7.673  0.1039  0.2962  0.3804
 1003W        W 1693   1.956   0.782   2.908 -0.2256 -0.0399  0.0378
 1004W        W 1694   4.019   1.217   2.064  0.1882  0.2841  0.0557
 1005W        W 1695   3.433   0.257   9.327 -0.2122 -0.0297 -0.1427
 1006W        W 1696   2.268   2.364   1.780 -0.0415 -0.1088 -0.2648
 1007W        W 1697   3.123   4.111   9.067  0.3200  0.1554 -0.2769
 1008W        W 1698   4.146   2.934   3.142  0.0618 -0.2529  0.1495
 1009W        W 1699   3.078   1.496   1.116 -0.0236 -0.2965 -0.1188
 1010W        W 1700   1.256   3.623   1.253  0.0560  0.1717  0.0531
 1011W        W 1701   0.277   4.363   0.090  0.1815 -0.1499 -0.0196
 1012W        W 1702   3.317   1.659   9.549 -0.1509 -0.2962 -0.0766
 1013W        W 1703   0.194   3.175   8.175  0.0617  0.2673  0.1354
 1014W        W 1704   1.843   3.013   3.322  0.0662  0.0335  0.1303
 1015W        W 1705   1.299   1.345   0.358 -0.0467 -0.1052  0.2694
 1016W        W 1706   1.321   1.515  11.385  0.1179 -0.0502 -0.3708
 1017W        W 1707   3.863   0.417   1.521 -0.0942  0.1451  0.1989
 1018W        W 1708   2.226   2.698   2.186 -0.2284  0.1139 -0.2081
 1019W        W 1709   3.051   2.978   0.908 -0.0056 -0.2448  0.2510
 1020W        W 1710   2.963   0.175   2.300 -0.1048  0.0523 -0.0128
 1021W        W 1711   3.385   4.013   9.947 -0.1353  0.0397 -0.2818
 1022W        W 1712   2.823   2.506   0.814 -0.0697  0.2100 -0.1337
 1023W        W 1713   2.596   0.651   1.950 -0.0088  0.1969  0.2739
 1024W        W 1714   3.278   4.296   8.051 -0.0177  0.0055 -0.1712
 1025W        W 1715   3.886   1.642   1.738  0.2799 -0.1468 -0.0676
 1026W        W 1716   0.398   1.045   8.742  0.0582  0.2927 -0.1153
 1027W        W 1717   1.369   3.083   2.500  0.0439 -0.1235  0.1371
 1028W        W 1718   1.382   0.751   3.705  0.1316 -0.0438 -0.2600
 1029W        W 1719   1.392   2.307   8.787  0.0368  0.0154  0.4394
 1030W        W 1720   4.164   1.886   8.951 -0.1481 -0.1342  0.1583
 1031W        W 1721   2.698   3.631   7.878  0.0983  0.1885  0.1023
 1032W        W 1722   2.714   4.080   8.234 -0.1050  0.3215  0.2444
 1033W        W 1723   1.816   4.054  10.481  0.0620  0.0857  0.0096
 1034W        W 1724   0.519   3.212   9.477  0.1554  0.1109 -0.1890
 1035W        W 1725   4.414   1.057   8.850  0.2717  0.1998  0.0956
 1036W        W 1726   1.425   1.611   2.799 -0.1933 -0.1058  0.2723
 1037W        W 1727   2.249   0.179   1.774  0.0931  0.0408 -0.1260
 1038W        W 1728   1.376   1.328   8.422  0.0357  0.0438  0.1571
 1039W        W 1729   2.475   0.888   1.354 -0.0794 -0.1696 -0.0367
 1040W        W 1730   2.303   1.190   8.612 -0.3701  0.2383  0.2795
 1041W        W 1731   0.642   0.713   8.453  0.1248  0.0350  0.2674
 1042W        W 1732   4.035   0.112   7.747 -0.2081  0.0308  0.2838
 1043W        W 1733   3.926   1.315   1.254  0.2890  0.0203 -0.1846
 1044W        W 1734   0.553   0.877   7.298 -0.2116  0.1263 -0.0206
 1045W        W 1735   1.435   1.929   1.464  0.1066  0.0790 -0.2699
 1046W        W 1736   0.776   3.146   1.884 -0.1637 -0.0128  0.3201
 1047W        W 1737   0.901   1.501   8.533  0.2128 -0.6010 -0.4418
 1048W        W 1738   3.190   3.154   2.286  0.0644 -0.0032 -0.2680
 1049W        W 1739   4.416   3.182   6.296 -0.2881 -0.1009 -0.0154
 1050W        W 1740   1.047   0.600   0.225 -0.0621  0.0155 -0.2901
 1051W        W 1741   4.474   4.466   1.399 -0.0690  0.1077 -0.0571
 1052W        W 1742   0.905   0.936  10.693  0.1295 -0.0813  0.4074
 1053W        W 1743   4.479   0.134  11.245  0.0583 -0.0372  0.0517
 1054W        W 1744   3.112   3.365   8.711  0.1641  0.1918  0.2246
 1055W        W 1745   4.113   3.514   9.409  0.0785 -0.1399 -0.0556
 1056W        W 1746   1.728   0.550   3.980 -0.1421  0.2823  0.0116
 1057W        W 1747   3.348   0.705   1.542  0.1615  0.0590  0.0994
 1058W        W 1748   2.288   0.623   8.989 -0.1266  0.0675 -0.0256
 1059W        W 1749   1.234   4.401   0.951 -0.0424 -0.0834 -0.2358
 1060W        W 1750   1.629   0.090   3.828  0.0674 -0.1546 -0.0355
 1061W        W 1751   1.799   0.330   1.591 -0.1452 -0.1767  0.1345
 1062W        W 1752   2.379   2.091   9.146  0.0129  0.1230  0.2005
 1063W        W 1753   3.556   3.522   0.245 -0.0200 -0.0883  0.0407
 1064W        W 1754   2.385   0.815  10.526  0.1344 -0.0541  0.0329
 1065W        W 1755   1.557   1.767   0.232  0.0595  0.0122 -0.0304
 1066W        W 1756   0.679   0.983   1.603  0.0557 -0.0278 -0.1188
 1067W        W 1757   1.057   1.024   1.249  0.0670  0.1806 -0.1366
 1068W        W 1758   2.503   2.335   2.738  0.1528 -0.1334  0.1029
 1069W        W 1759   3.695   2.133   8.156 -0.1968  0.0815 -0.0188
 1070W        W 1760   3.574   3.177   8.757 -0.3017  0.0825  0.0335
 1071W        W 1761   1.187   1.762  10.502 -0.1072  0.1580 -0.1755
 1072W        W 1762   1.067   1.164   4.395  0.1744 -0.1023  0.0959
 1073W        W 1763   2.318   3.255  10.275 -0.0388  0.1145  0.0701
 1074W        W 1764   0.753   1.694   4.125 -0.2753  0.0039 -0.1315
 1075W        W 1765   1.700   3.975   2.176 -0.0866 -0.0182 -0.0407
 1076W        W 1766   4.129   1.700   3.047 -0.1216 -0.2720  0.0871
 1077W        W 1767   1.343   4.104   3.622  0.2557  0.1968  0.2119
 1078W        W 1768   3.629   0.245   8.007  0.1607  0.2107  0.0037
 1079W        W 1769   3.456   3.918   8.265  0.1120 -0.2452  0.0119
 1080W        W 1770   0.351   1.046   1.997  0.1085  0.3413 -0.0940
 1081W        W 1771   0.699   0.915  10.140  0.1464 -0.0570  0.1203
 1082W        W 1772   1.008   3.503   9.568  0.1010  0.2398 -0.4850
 1083W        W 1773   2.287   0.987   0.305  0.0842 -0.2494 -0.1096
 1084W        W 1774   2.813   0.552   3.188  0.1367 -0.0359 -0.0523
 1085W        W 1775   3.680   4.140   8.971 -0.1458  0.3794  0.0670
 1086W        W 1776   4.107   2.812   0.179  0.0743  0.0887 -0.1476
 1087W        W 1777   2.174   1.222   3.160  0.3665 -0.1682  0.1387
 1088W        W 1778   3.657   1.936   0.437 -0.3012  0.0804 -0.0125
 1089W        W 1779   1.014   1.195   2.050  0.2984 -0.3345 -0.0701
 1090W        W 1780   0.719   2.649  10.069 -0.2155  0.0484  0.1379
 1091W        W 1781   3.460   3.700   8.715 -0.0192  0.0663 -0.0071
 1092W        W 1782   2.286   3.911   2.249 -0.0319 -0.0277 -0.1322
 1093W        W 1783   4.142   3.491   2.395 -0.0218 -0.3386 -0.0152
 1094W        W 1784   4.200   3.953   7.984 -0.1905  0.0520  0.1793
 1095W        W 1785   3.990   2.372   2.994 -0.3515  0.0226  0.2852
 1096W        W 1786   3.820   1.115   8.487  0.2920  0.1227  0.0678
 1097W        W 1787   3.252   1.005   3.231  0.2572  0.0800  0.0809
 1098W        W 1788   2.031   1.774   0.165 -0.0783 -0.2984 -0.1096
 1099W        W 1789   1.120   3.508   2.513 -0.1171 -0.1803  0.1378
 1100W        W 1790   2.672   2.364  10.827 -0.2714 -0.2555 -0.2557
 1101W        W 1791   4.238   0.875   1.416  0.3756  0.1292 -0.3792
 1102W        W 1792   1.398   3.446   9.968 -0.1252 -0.1155  0.1017
 1103W        W 1793   0.793   1.476   1.658  0.1271 -0.0829  0.3861
 1104W        W 1794   0.658   0.906   2.930  0.1911  0.0638 -0.2679
 1105W        W 1795   3.764   2.209   9.735  0.0234 -0.1010  0.2959
 1106W        W 1796   3.911   3.507   8.526 -0.1408 -0.0580  0.2956
 1107W        W 1797   2.399   2.402   3.558  0.1021  0.1763  0.2336
 1108W        W 1798   2.718   4.225   3.001 -0.0981  0.3426 -0.0564
 1109W        W 1799   0.648   3.416  11.485  0.2958 -0.0477 -0.0231
 1110W        W 1800   3.884   1.605   3.453 -0.1115 -0.1742 -0.0210
 1111W        W 1801   3.070   1.034   1.862 -0.2313 -0.3495 -0.1730
 1112W        W 1802   1.460   1.933  11.164  0.4192  0.0581  0.0717
 1113W        W 1803   4.339   0.464   3.467 -0.2890 -0.0159  0.1159
 1114W        W 1804   2.638   4.186   3.530  0.4962 -0.2224  0.0012
 1115W        W 1805   2.690   4.329   0.889  0.1032 -0.0184  0.3654
 1116W        W 1806   3.405   3.447   1.101 -0.1614 -0.0041  0.1032
 1117W        W 1807   4.445   2.104   2.938  0.1322 -0.2461  0.1325
 1118W        W 1808   0.665   2.077   0.559 -0.0373  0.1284  0.2846
 1119W        W 1809   2.604   3.061   2.247  0.0669  0.0105 -0.1910
 1120W        W 1810   2.657   2.510  11.326 -0.2503  0.0189  0.0194
 1121W        W 1811   2.144   2.250  10.519  0.1902 -0.1205  0.3526
 1122W        W 1812   0.355   3.794   0.255 -0.3209  0.1957  0.0004
 1123W        W 1813   0.057   2.915  11.390 -0.0032 -0.2157  0.0882
 1124W        W 1814   2.173   3.805   9.627  0.1799 -0.0075 -0.1242
 1125W        W 1815   2.042   1.610  10.736 -0.0235 -0.1165 -0.1356
 1126W        W 1816   0.339   0.124   1.834 -0.0818  0.3723  0.3112
 1127W        W 1817   4.087   1.927   8.390 -0.4391  0.1104 -0.0604
 1128W        W 1818   1.629   2.690   0.861  0.0609 -0.0264  0.0543
 1129W        W 1819   2.425   0.037   8.360  0.2043  0.2029 -0.1352
 1130W        W 1820   0.082   0.368   7.723 -0.2814  0.1744 -0.0884
 1131W        W 1821   0.282   1.530  10.245 -0.1979 -0.4701  0.1385
 1132W        W 1822   0.088   1.455   9.394 -0.1176 -0.3041  0.0322
 1133W        W 1823   2.152   2.850   8.055 -0.1160  0.3944 -0.3362
 1134W        W 1824   4.188   2.024   2.533 -0.2324  0.0672 -0.2506
 1135W        W 1825   0.144   4.093   2.922  0.0319 -0.2104 -0.0753
 1136W        W 1826   2.886   0.179   1.668  0.0804 -0.0183 -0.1847
 1137W        W 1827   1.575   1.898   0.881 -0.3143 -0.2046  0.0679
 1138W        W 1828   0.020   0.323   9.295  0.1013  0.0080 -0.0486
 1139W        W 1829   2.345   3.520   1.114  0.1532 -0.0957  0.0289
 1140W        W 1830   0.094   3.602   1.116 -0.0818  0.1034  0.1644
 1141W        W 1831   0.277   2.178   9.712  0.1122 -0.1255  0.0166
 1142W        W 1832   0.586   3.436   9.966 -0.1941 -0.3401  0.0820
 1143W        W 1833   0.286   2.674  10.923 -0.0623 -0.2435 -0.0131
 1144W        W 1834   3.121   0.445  11.138 -0.1525 -0.0843  0.0755
 1145W        W 1835   0.070   0.969   0.576  0.1227  0.3443  0.0499
 1146W        W 1836   3.299   3.074   9.793  0.1158  0.0661  0.1903
 1147W        W 1837   0.766   2.637   1.583  0.0437 -0.1523  0.3722
 1148W        W 1838   2.462   0.250  10.659 -0.0897 -0.0711 -0.0631
 1149W        W 1839   3.563   3.242   3.936  0.2120  0.0367 -0.2182
 1150W        W 1840   1.195   0.802   3.159 -0.1006 -0.1577  0.0798
 1151W        W 1841   2.721   1.054  10.989 -0.0585 -0.0106 -0.0047
 1152W        W 1842   4.330   4.318   9.496 -0.1727 -0.1306 -0.2558
 1153W        W 1843   0.616   0.757   0.053  0.0373 -0.0544  0.2571
 1154W        W 1844   3.034   1.761  10.310  0.0337 -0.0690 -0.0260
 1155W        W 1845   0.066   1.864   8.634  0.3028 -0.0142  0.1976
 1156W        W 1846   1.418   2.573   3.115 -0.1709 -0.2847  0.0202
 1157W        W 1847   2.907   1.946   2.379  0.0669  0.1040  0.1368
 1158W        W 1848   4.243   0.677   9.768 -0.1797 -0.2049 -0.0997
 1159W        W 1849   4.422   3.323   8.600 -0.1329 -0.0312 -0.1450
 1160W        W 1850   2.789   3.596   8.362 -0.1743 -0.1097  0.1235
 1161W        W 1851   2.500   3.252   3.321 -0.0970  0.0527  0.0769
 1162W        W 1852   4.147   0.773   1.924  0.1231  0.1124  0.0865
 1163W        W 1853   0.537   4.367  10.103 -0.0111 -0.0440  0.1764
 1164W        W 1854   1.800   2.633   1.309  0.1941 -0.0247 -0.0443
 1165W        W 1855   0.858   3.008   9.791 -0.1403 -0.1723 -0.0821
 1166W        W 1856   0.307   3.952   8.138 -0.0608  0.0334  0.0851
 1167W        W 1857   1.390   1.241   2.445  0.0272 -0.1265  0.2277
 1168W        W 1858   3.719   2.166   1.689 -0.2325  0.2431 -0.1453
 1169W        W 1859   1.600   0.643   9.798 -0.1115  0.3273  0.0661
 1170W        W 1860   3.109   3.638   9.664  0.0798 -0.1575 -0.2502
 1171W        W 1861   2.965   0.170   2.815 -0.0097 -0.0245 -0.2644
 1172W        W 1862   3.899   0.967   9.561  0.3323  0.2011  0.1583
 1173W        W 1863   1.148   0.857   9.828 -0.0053 -0.0935 -0.2156
 1174W        W 1864   0.749   2.542   7.553  0.2709  0.0627  0.3243
 1175W        W 1865   4.435   4.431   2.673 -0.0572 -0.0938 -0.1142
 1176W        W 1866   1.023   0.851   2.543 -0.1880  0.0786  0.2510
 1177W        W 1867   0.122   3.202   3.026  0.4616  0.3958  0.0621
 1178W        W 1868   0.511   2.046  10.922  0.1967  0.1240  0.0569
 1179W        W 1869   3.236   1.321   8.801 -0.0674 -0.2914  0.1209
 1180W        W 1870   4.336   1.442   3.500 -0.1936 -0.3933  0.0596
 1181W        W 1871   0.644   1.562   9.168  0.0075  0.0330  0.1323
 1182W        W 1872   0.751   2.129   2.384 -0.1223  0.0833 -0.0137
 1183W        W 1873   0.738   0.631   9.022  0.0466 -0.1816 -0.1569
 1184W        W 1874   2.785   0.179   9.710 -0.1487  0.0247 -0.0279
 1185W        W 1875   0.312   4.124   2.017  0.1219  0.1858  0.0667
 1186W        W 1876   3.692   0.930  11.527 -0.0938 -0.1962 -0.3323
 1187W        W 1877   2.551   2.985   9.360  0.3703 -0.2703  0.0605
 1188W        W 1878   2.570   1.654  10.042 -0.0771  0.2061 -0.0588
 1189W        W 1879   3.236   1.749   0.173  0.0599  0.2672  0.0235
 1190W        W 1880   1.797   1.214   8.160 -0.0435 -0.2017 -0.0249
 1191W        W 1881   1.974   3.996   8.785 -0.0532 -0.1548  0.2779
 1192W        W 1882   0.598   0.505   1.910 -0.1241  0.1313 -0.3417
 1193W        W 1883   0.971   0.356  11.296  0.0129  0.0504 -0.3653
 1194W        W 1884   4.223   2.905   9.316 -0.0346 -0.2328  0.2602
 1195W        W 1885   0.194   2.129   1.936  0.2113  0.0892 -0.5042
 1196W        W 1886   1.416   0.280   0.636  0.0036 -0.2010 -0.0550
 1197W        W 1887   0.996   3.312   9.054  0.3916  0.2031 -0.1575
 1198W        W 1888   0.429   1.098  10.571 -0.0563  0.2369 -0.0469
 1199W        W 1889   2.052   1.811   2.826 -0.0849  0.2011  0.0910
 1200W        W 1890   1.070   2.789   2.123 -0.0791  0.0186 -0.0439
 1201W        W 1891   1.015   0.472   2.142 -0.0938 -0.1287 -0.0375
 1202W        W 1892   0.161   1.055   3.597  0.3278  0.3673  0.1343
 1203W        W 1893   2.367   1.925   3.642  0.1340 -0.0966 -0.0046
 1204W        W 1894   2.219   3.849   3.921  0.2922  0.1312  0.0029
 1205W        W 1895   3.132   4.437  11.065 -0.1858  0.1433  0.2854
 1206W        W 1896   1.171   1.792   0.616 -0.1872  0.1190 -0.1576
 1207W        W 1897   3.240   2.205   0.551 -0.2317  0.1646  0.0682
 1208W        W 1898   0.893   0.077   0.560 -0.5238 -0.2767 -0.3444
 1209W        W 1899   2.276   3.815   2.888  0.1983  0.2480 -0.1316
 1210W        W 1900   2.018   4.108  10.030 -0.3186 -0.2105  0.0388
 1211W        W 1901   3.246   0.548   2.990 -0.2131 -0.4379  0.0099
 1212W        W 1902   1.068   3.926   3.270  0.0972 -0.0299  0.0945
 1213W        W 1903   2.814   2.816   1.400 -0.1822  0.0582 -0.0002
 1214W        W 1904   0.712   2.254   4.237  0.1094  0.3161 -0.3169
 1215W        W 1905   0.325   2.876   1.772 -0.2712 -0.0640  0.1983
 1216W        W 1906   2.180   1.319   1.609 -0.0955  0.0590  0.2265
 1217W        W 1907   3.923   0.904   8.990 -0.0593 -0.2346  0.0687
 1218W        W 1908   3.910   1.834  10.149  0.2053 -0.0077  0.2860
 1219W        W 1909   3.190   2.428   8.809 -0.4703 -0.0676  0.0910
 1220W        W 1910   0.245   0.249  10.227 -0.2502  0.0430  0.1019
 1221W        W 1911   2.441   1.780   2.518 -0.0783  0.3723 -0.0427
 1222W        W 1912   1.717   2.626   2.299 -0.2065 -0.0585  0.1847
 1223W        W 1913   1.089   0.161   9.098 -0.2829 -0.1740  0.0117
 1224W        W 1914   0.604   3.261   2.643 -0.0635 -0.3684  0.2308
 1225W        W 1915   3.782   1.803  11.493  0.0321 -0.0264 -0.0614
 1226W        W 1916   0.970   2.269  11.294 -0.2699  0.0409  0.1022
 1227W        W 1917   2.558   2.294  10.265  0.0984 -0.1200  0.3235
 1228W        W 1918   1.002   1.899  10.938  0.0405 -0.0788  0.1095
 1229W        W 1919   0.674   4.092   2.411  0.0717  0.0030  0.0908
 1230W        W 1920   2.653   0.626   9.265 -0.0992  0.1199 -0.2453
 1231W        W 1921   0.212   2.838   2.622  0.0688  0.2094  0.0380
 1232W        W 1922   1.055   0.972   8.550  0.0021 -0.4108  0.0003
 1233W        W 1923   4.135   3.431   7.614 -0.0793 -0.3394  0.1162
 1234W        W 1924   2.277   1.006   9.427 -0.3235 -0.2013  0.4449
 1235W        W 1925   3.310   3.990   0.374 -0.3954 -0.0285 -0.0650
 1236W        W 1926   0.109   1.689   2.888 -0.0155  0.4952  0.4667
 1237W        W 1927   2.140   2.477  11.393 -0.0232 -0.4625  0.1227
 1238W        W 1928   1.077   2.872   9.364  0.1475 -0.0495 -0.0801
 1239W        W 1929   2.529   3.092   1.047 -0.1811 -0.0593 -0.0492
 1240W        W 1930   1.969   3.562   2.051 -0.1732  0.3635  0.0710
 1241W        W 1931   4.229   3.408  10.537  0.0874 -0.0589  0.2086
 1242W        W 1932   4.051   4.141  11.185 -0.1788  0.2666 -0.1022
 1243W        W 1933   1.708   3.659   8.494  0.0357 -0.1407  0.0484
 1244W        W 1934   2.824   3.944   1.191  0.0727  0.2066 -0.0197
 1245W        W 1935   1.772   3.508  10.477  0.0795 -0.0089 -0.0203
 1246W        W 1936   1.195   4.420   1.906  0.0001 -0.3472 -0.0101
 1247W        W 1937   2.354   0.472   7.967 -0.0521 -0.1303  0.1894
 1248W        W 1938   0.194   0.273  10.797  0.0897 -0.0704  0.2482
 1249W        W 1939   2.719   2.800   3.559 -0.0900  0.2078  0.1683
 1250W        W 1940   0.616   1.842   8.241 -0.0610  0.0192  0.0460
 1251W        W 1941   1.973   1.087  10.815  0.0784 -0.2833 -0.0028
 1252W        W 1942   1.818   0.013   0.427 -0.0787  0.0969  0.6012
 1253W        W 1943   3.799   3.056   9.951 -0.1321 -0.0119  0.4396
 1254W        W 1944   4.440   1.715   9.936  0.1138 -0.0997 -0.0373
 1255W        W 1945   3.556   3.482   9.817  0.1811  0.3831  0.0070
 1256W        W 1946   2.527   1.436   9.581  0.0106  0.2940 -0.0245
 1257W        W 1947   1.532   1.765   7.081  0.1198  0.0286 -0.0197
 1258W        W 1948   3.131   3.588  10.160  0.0393  0.0543 -0.1957
 1259W        W 1949   0.229   3.748   8.817 -0.2467 -0.1774  0.1800
 1260W        W 1950   0.118   3.446  11.503 -0.2722  0.0297  0.0686
 1261W        W 1951   4.092   2.181   2.077  0.1376  0.1293 -0.1068
 1262W        W 1952   2.670   2.786   8.164 -0.0383 -0.0323  0.0023
 1263W        W 1953   1.602   1.726   8.182 -0.0892  0.2213  0.0528
 1264W        W 1954   0.701   3.222   3.251 -0.0156  0.0884  0.0556
 1265W        W 1955   0.087   0.763   7.376 -0.1916 -0.2738 -0.0689
 1266W        W 1956   3.277   3.302   0.603  0.1354  0.3120  0.0353
 1267W        W 1957   0.984   3.928  10.642  0.3996  0.1249 -0.0761
 1268W        W 1958   0.362   1.896   3.266 -0.1803 -0.0714  0.1986
 1269W        W 1959   2.093   2.753   9.299  0.1629  0.1650  0.2295
 1270W        W 1960   0.029   1.462   0.277  0.1640 -0.3912 -0.3077
 1271W        W 1961   1.373   0.339   2.963 -0.2719 -0.1569  0.0544
 1272W        W 1962   2.014   0.469   0.688 -0.0674 -0.1904  0.1033
 1273W        W 1963   1.027   3.840   9.186 -0.0272 -0.2232 -0.0109
 1274W        W 1964   3.699   3.409   1.524 -0.0103 -0.3118  0.1744
 1275W        W 1965   1.702   3.969   7.381 -0.1920 -0.0082 -0.0449
 1276W        W 1966   3.337   0.714   1.009  0.1172  0.4137  0.0059
 1277W        W 1967   1.165   0.578   8.849  0.2201  0.0168 -0.1336
 1278W        W 1968   1.276   3.971   8.270  0.0043 -0.1311  0.1650
 1279W        W 1969   1.470   2.038   9.195 -0.0560  0.0804  0.2536
 1280W        W 1970   2.929   0.093   8.637 -0.0454 -0.2148 -0.0452
 1281W        W 1971   2.378   4.002   7.884 -0.0051  0.1580 -0.1254
 1282W        W 1972   0.430   1.121  11.107  0.2233  0.0901  0.0586
 1283W        W 1973   2.043   3.494   0.697 -0.3045 -0.0779 -0.4409
 1284W        W 1974   3.369   2.680   0.625  0.1544 -0.0137  0.0829
 1285W        W 1975   2.973   0.848   3.836  0.1030  0.2625  0.3113
 1286W        W 1976   1.785   4.445   9.127  0.1326  0.1159 -0.0396
 1287W        W 1977   4.237   2.246   9.916  0.0182  0.1331 -0.2673
 1288W        W 1978   1.383   4.258   0.499 -0.1697 -0.3305 -0.0057
 1289W        W 1979   3.142   2.537   1.168 -0.0346  0.0698  0.2439
 1290W        W 1980   4.066   1.175   0.271  0.2557  0.0837 -0.0732
 1291W        W 1981   0.879   1.132   0.134  0.2292  0.0098 -0.0416
 1292W        W 1982   1.354   0.112  11.026  0.2078 -0.0026 -0.2089
 1293W        W 1983   1.811   4.189  11.013  0.2373 -0.3078  0.0061
 1294W        W 1984   0.968   0.554   1.550  0.3225 -0.0117 -0.1754
 1295W        W 1985   3.949   2.493  10.859 -0.3055 -0.1312  0.1427
 1296W        W 1986   3.669   2.321  10.277  0.1842  0.0051  0.2168
 1297W        W 1987   1.077   0.573   9.394 -0.0133  0.0699 -0.2625
 1298W        W 1988   3.343   3.075   1.394  0.1599 -0.0670 -0.1667
 1299W        W 1989   4.161   4.086   2.890 -0.0556  0.0371 -0.0890
 1300W        W 1990   2.357   2.723   9.933 -0.2246 -0.0109  0.2349
 1301W        W 1991   3.201   3.671   3.032 -0.2058  0.1152 -0.1510
 1302W        W 1992   3.101   4.259  11.518 -0.2165 -0.1957 -0.0851
 1303W        W 1993   2.715   3.776   2.680 -0.2255  0.0912  0.3148
 1304W        W 1994   0.004   2.655   2.073 -0.0228 -0.1438 -0.3247
 1305W        W 1995   3.803   3.140   3.435  0.3298 -0.2178 -0.0476
 1306W        W 1996   1.165   4.011  11.126  0.0952  0.0082  0.2204
 1307W        W 1997   0.560   4.160   0.511  0.0662  0.0286  0.0509
 1308W        W 1998   3.378   2.847   3.544 -0.2656 -0.1835 -0.2046
 1309W        W 1999   4.478   0.935   2.317 -0.1667 -0.1772 -0.0402
 1310W        W 2000   0.472   2.299   2.905  0.0107 -0.1483 -0.0632
 1311W        W 2001   1.767   1.549  11.204 -0.3449  0.2199 -0.0381
 1312W        W 2002   1.859   0.907   8.549 -0.1602  0.2902 -0.0353
 1313W        W 2003   2.777   3.970  10.273 -0.3572  0.0534 -0.0654
 1314W        W 2004   0.863   2.602   8.088 -0.0560  0.1931 -0.1447
 1315W        W 2005   1.852   2.493   3.372 -0.0502  0.1116 -0.3118
 1316W        W 2006   2.190   3.711   0.186 -0.0965 -0.1414  0.0041
 1317W        W 2007   2.859   2.240   9.842  0.1144 -0.1909 -0.2309
 1318W        W 2008   0.148   1.807   7.644 -0.0977  0.0240  0.3535
 1319W        W 2009   0.832   0.103   1.763 -0.2215 -0.0978 -0.0638
 1320W        W 2010   2.154   4.434   0.819  0.0785  0.0529 -0.0062
 1321W        W 2011   1.695   2.017  10.768 -0.1373  0.1119 -0.1373
 1322W        W 2012   3.419   2.529  10.650  0.0841 -0.0743 -0.1308
 1323W        W 2013   2.246   3.114   8.972  0.0825  0.0181  0.0215
 1324W        W 2014   0.463   1.248   4.184  0.1093 -0.5573  0.3200
 1325W        W 2015   1.433   0.386   2.487  0.0682 -0.2269 -0.0036
 1326W        W 2016   3.555   0.848   8.103 -0.0715 -0.0126  0.2980
 1327W        W 2017   3.142   2.077   8.443  0.0980  0.0276 -0.0609
 1328W        W 2018   1.773   3.782   7.966 -0.0371  0.0243  0.0803
 1329W        W 2019   4.491   3.872   9.319  0.4131  0.1696  0.4285
 1330W        W 2020   0.290   2.400   2.431 -0.1956 -0.0526  0.0733
 1331W        W 2021   2.388   1.178  11.390 -0.0032 -0.1701 -0.0602
 1332W        W 2022   3.569   2.918   4.339  0.0222 -0.0588 -0.0285
 1333W        W 2023   2.465   2.552   9.033  0.1726  0.1998 -0.0739
 1334W        W 2024   2.989   0.243   0.083 -0.0620  0.0568  0.1313
 1335W        W 2025   1.848   4.006   3.655  0.0087  0.1559 -0.0313
 1336W        W 2026   0.472   2.223   7.815  0.7752 -0.2980 -0.1544
 1337W        W 2027   2.478   0.930   2.882  0.1671  0.2309  0.1785
 1338W        W 2028   1.332   4.337   2.781 -0.0423 -0.3440 -0.0054
 1339W        W 2029   2.388   0.706  11.085 -0.0822 -0.0694 -0.4748
 1340W        W 2030   2.580   1.186   9.073  0.0047  0.2922 -0.3312
 1341W        W 2031   0.453   0.823   3.923  0.0441 -0.0631  0.3557
 1342W        W 2032   1.009   2.688  10.473 -0.0694  0.0688  0.1742
 1343W        W 2033   1.378   4.114   9.316 -0.0021  0.3333  0.0973
 1344W        W 2034   3.263   4.174   3.154 -0.0958  0.2091 -0.0637
 1345W        W 2035   1.994   0.524  10.779 -0.1688  0.0492  0.0666
 1346W        W 2036   3.094   2.904   8.492  0.3386 -0.2232 -0.0352
 1347W        W 2037   1.956   2.292   0.968 -0.1799 -0.1084  0.3732
 1348W        W 2038   4.181   1.864   7.807  0.2001  0.1049 -0.1462
 1349W        W 2039   2.503   3.523   0.564  0.1074 -0.1079 -0.0514
 1350W        W 2040   1.600   3.541   2.444  0.1158  0.0848 -0.3598
 1351W        W 2041   0.521   3.940  10.370  0.2065  0.1576 -0.0029
 1352W        W 2042   1.759   3.779   1.642 -0.2318 -0.0518 -0.0182
 1353W        W 2043   1.695   2.929  10.927 -0.0616  0.0606 -0.0134
 1354W        W 2044   2.513   1.536  11.055  0.0103  0.1788 -0.1900
 1355W        W 2045   3.095   0.959   9.161 -0.1068  0.0036 -0.0889
 1356W        W 2046   0.988   1.383  11.025  0.0645 -0.0081 -0.0407
 1357W        W 2047   3.185   1.203   2.295  0.1969  0.1403  0.3279
 1358W        W 2048   1.676   1.380   9.169  0.3601  0.1300  0.0254
 1359W        W 2049   0.773   1.219   9.705 -0.0563 -0.1876 -0.0870
 1360W        W 2050   0.779   2.449  10.867  0.0864 -0.0802 -0.0642
 1361W        W 2051   3.467   3.674  10.915 -0.1363  0.3131 -0.0747
 1362W        W 2052   4.085   3.511   0.449 -0.1598  0.0093 -0.3510
 1363W        W 2053   4.257   1.910   9.549  0.2256  0.0892  0.2483
 1364W        W 2054   3.688   0.615   3.688 -0.2979 -0.2922  0.1200
 1365W        W 2055   0.232   4.066   9.826 -0.2790  0.1361 -0.1320
 1366W        W 2056   0.933   2.481   0.716  0.0280 -0.3962 -0.0866
 1367W        W 2057   4.471   0.433   1.221 -0.0584 -0.0331 -0.1723
 1368W        W 2058   0.462   3.151   1.368  0.1500 -0.1309  0.0577
 1369W        W 2059   2.627   2.910  10.924  0.2490  0.4106 -0.1593
 1370W        W 2060   2.469   1.483   3.436 -0.1783 -0.1054  0.0788
 1371W        W 2061   0.876   0.687   3.620 -0.2409 -0.2216 -0.1396
 1372W        W 2062   4.146   0.390   2.361  0.2939  0.0040 -0.0069
 1373W        W 2063   3.816   1.602   0.853 -0.2986  0.1100 -0.2598
 1374W        W 2064   3.541   4.172  11.225  0.0204 -0.0814 -0.0293
 1375ION     NA 2065   2.131   0.233   9.031 -0.0462 -0.4842  0.5874
 1376ION     NA 2066   2.046   0.948   1.272  0.0055 -0.1334 -0.1626
 1377ION     NA 2067   2.795   3.504   2.345 -0.0479  0.2518 -0.0068
 1378ION     NA 2068   1.855   3.306  10.933  0.0315  0.1523 -0.1855
 1379ION     NA 2069   0.265   1.541   1.041  0.2287  0.0549  0.3551
 1380ION     NA 2070   0.776   0.856   2.162  0.0997  0.0971  0.1613
 1381ION     NA 2071   1.479   4.188   8.596 -0.2974  0.1403  0.3365
 1382ION     NA 2072   3.408   3.399   9.454  0.3921 -0.0113  0.1275
 1383ION     NA 2073   2.121   3.316   0.344 -0.2733 -0.3333 -0.2202
 1384ION     NA 2074   2.816   2.299   0.439 -0.1423  0.1993  0.0255
 1385ION     NA 2075   4.150   2.897   3.555  0.2094  0.2113  0.0399
 1386ION     NA 2076   0.847   3.081   2.332  0.3456 -0.3333  0.1859
 1387ION     NA 2077   2.227   4.208   8.523  0.0513 -0.1452  0.2578
 1388ION     NA 2078   2.771   0.653  10.903 -0.1231 -0.0091  0.3910
 1389ION     CL 2079   2.149   4.296   8.132  0.9975  0.1421 -0.0175
 1390ION     CL 2080   0.960   0.809   1.865 -0.1815  0.1482  0.2396
 1391ION     CL 2081   2.413   3.947   8.678  0.2826 -0.1909 -0.5559
 1392ION     CL 2082   2.486   3.242   0.254  0.1272  0.1941  0.4055
 1393ION     CL 2083   0.508   0.263   0.907 -0.3814  0.2882 -0.0295
 1394ION     CL 2084   3.488   1.748   1.788 -0.2292  0.1782 -0.2295
 1395ION     CL 2085   2.977   3.962   9.863 -0.0892  0.3466 -0.3816
 1396ION     CL 2086   3.304   2.836   8.848  0.3060 -0.2987 -0.1340
 1397ION     CL 2087   3.254   1.357   2.845 -0.2831  0.1162  0.1366
 1398ION     CL 2088   2.325   3.415   9.264 -0.0831 -0.1890  0.2994
 1399ION     CL 2089   3.856   2.580   9.945  0.3064 -0.1163 -0.1241
 1400ION     CL 2090   3.838   3.860   9.774  0.0789 -0.6698  0.1168
 1401ION     CL 2091   3.199   3.853   1.972 -0.0639 -0.2947 -0.0927
 1402ION     CL 2092   1.513   3.349  10.812 -0.4643  0.5532  0.2850
   4.49821   4.49821  11.52745
