INSANE! Membrane UpperLeaflet>GIB0:POPC=50.0:50.0 LowerLeaflet>GIB0:POPC=50.0:50.0
 1854
    1GIB0   PO4    1   4.591   0.502   7.406
    1GIB0    A0    2   4.944   0.432   7.559
    1GIB0    B0    3   4.764   0.517   7.869
    1GIB0    C0    4   0.052   0.261   7.875
    1GIB0   VS0    5   4.920   0.403   7.768
    1GIB0    A1    6   4.701   0.136   8.008
    1GIB0    B1    7   4.599   0.201   8.341
    1GIB0    C1    8   4.823   0.409   8.178
    1GIB0    D1    9   4.956   0.493   8.322
    1GIB0   VS1   10   4.708   0.248   8.176
    1GIB0    A2   11   4.429   0.190   8.658
    1GIB0    B2   12   4.582   0.248   9.001
    1GIB0    C2   13   4.888   0.181   8.759
    1GIB0   VS2   14   4.633   0.206   8.806
    1GIB0    A3   15   4.635   0.200   9.341
    1GIB0    B3   16   4.795   0.406   9.469
    1GIB0    C3   17   0.025   0.298   9.259
    1GIB0   VS3   18   4.818   0.301   9.356
    1GIB0   NOH   19   4.683   0.163   7.104
    1GIB0   GLA   20   4.436   0.170   6.929
    1GIB0   GLB   21   4.851   0.393   7.018
    1GIB0   C1A   22   4.279   0.259   6.506
    1GIB0   C2A   23   4.308   0.346   6.028
    1GIB0   C3A   24   4.318   0.327   5.548
    1GIB0   C1B   25   4.780   0.393   6.527
    1GIB0   C2B   26   4.828   0.524   6.070
    1GIB0   C3B   27   4.819   0.241   5.703
    1GIB0   C4B   28   4.889   0.367   5.273
    1GIB0   C5B   29   0.125   0.233   4.912
    1GIB0   PO4   30   0.357   0.084   7.579
    1GIB0    A0   31   0.464   0.425   7.644
    1GIB0    B0   32   0.652   0.274   7.922
    1GIB0    C0   33   0.757   0.616   7.778
    1GIB0   VS0   34   0.624   0.438   7.781
    1GIB0    A1   35   0.370   0.447   8.111
    1GIB0    B1   36   0.367   0.323   8.443
    1GIB0    C1   37   0.529   0.153   8.189
    1GIB0    D1   38   0.522   4.944   8.230
    1GIB0   VS1   39   0.422   0.307   8.248
    1GIB0    A2   40   0.325   0.046   8.649
    1GIB0    B2   41   0.371   0.135   9.015
    1GIB0    C2   42   0.635   0.355   8.820
    1GIB0   VS2   43   0.443   0.179   8.828
    1GIB0    A3   44   0.418   0.124   9.358
    1GIB0    B3   45   0.435   0.394   9.463
    1GIB0    C3   46   0.708   0.403   9.277
    1GIB0   VS3   47   0.520   0.307   9.366
    1GIB0   NOH   48   0.464   0.205   7.140
    1GIB0   GLA   49   0.283   0.246   6.907
    1GIB0   GLB   50   0.749   0.234   7.043
    1GIB0   C1A   51   0.260   0.199   6.463
    1GIB0   C2A   52   0.265   0.253   5.988
    1GIB0   C3A   53   0.249   0.557   5.612
    1GIB0   C1B   54   0.716   0.416   6.579
    1GIB0   C2B   55   0.699   0.498   6.104
    1GIB0   C3B   56   0.980   0.361   5.742
    1GIB0   C4B   57   0.737   0.612   5.427
    1GIB0   C5B   58   0.534   0.171   5.445
    1GIB0   PO4   59   0.603   1.205   7.460
    1GIB0    A0   60   0.397   1.565   7.478
    1GIB0    B0   61   0.275   1.503   7.820
    1GIB0    C0   62   0.443   1.838   7.730
    1GIB0   VS0   63   0.372   1.635   7.676
    1GIB0    A1   64   0.631   1.579   7.966
    1GIB0    B1   65   0.540   1.467   8.290
    1GIB0    C1   66   0.348   1.699   8.120
    1GIB0    D1   67   0.255   1.828   8.262
    1GIB0   VS1   68   0.506   1.582   8.125
    1GIB0    A2   69   0.586   1.284   8.605
    1GIB0    B2   70   0.573   1.383   8.971
    1GIB0    C2   71   0.702   1.705   8.779
    1GIB0   VS2   72   0.620   1.457   8.785
    1GIB0    A3   73   0.688   1.397   9.310
    1GIB0    B3   74   0.502   1.473   9.519
    1GIB0    C3   75   0.518   1.766   9.369
    1GIB0   VS3   76   0.569   1.545   9.399
    1GIB0   NOH   77   0.663   1.343   7.017
    1GIB0   GLA   78   0.657   1.084   6.866
    1GIB0   GLB   79   0.416   1.481   6.918
    1GIB0   C1A   80   0.667   0.943   6.438
    1GIB0   C2A   81   0.625   0.991   5.953
    1GIB0   C3A   82   0.567   1.141   5.493
    1GIB0   C1B   83   0.513   1.482   6.433
    1GIB0   C2B   84   0.375   1.433   5.972
    1GIB0   C3B   85   0.676   1.771   5.943
    1GIB0   C4B   86   0.490   1.680   5.500
    1GIB0   C5B   87   0.609   1.621   5.027
    1GIB0   PO4   88   3.361   1.327   7.597
    1GIB0    A0   89   3.705   1.484   7.593
    1GIB0    B0   90   3.841   1.144   7.638
    1GIB0    C0   91   4.078   1.448   7.611
    1GIB0   VS0   92   3.874   1.359   7.614
    1GIB0    A1   93   3.814   1.041   8.029
    1GIB0    B1   94   3.646   1.241   8.269
    1GIB0    C1   95   3.764   1.377   7.973
    1GIB0    D1   96   3.818   1.580   8.007
    1GIB0   VS1   97   3.741   1.220   8.091
    1GIB0    A2   98   3.489   1.243   8.607
    1GIB0    B2   99   3.651   1.302   8.946
    1GIB0    C2  100   3.927   1.121   8.728
    1GIB0   VS2  101   3.689   1.222   8.761
    1GIB0    A3  102   3.753   1.248   9.284
    1GIB0    B3  103   3.975   1.396   9.396
    1GIB0    C3  104   4.143   1.242   9.157
    1GIB0   VS3  105   3.957   1.295   9.279
    1GIB0   NOH  106   3.555   1.239   7.177
    1GIB0   GLA  107   3.505   1.198   6.884
    1GIB0   GLB  108   3.859   1.246   7.182
    1GIB0   C1A  109   3.553   1.260   6.449
    1GIB0   C2A  110   3.489   1.203   5.976
    1GIB0   C3A  111   3.437   1.120   5.496
    1GIB0   C1B  112   3.977   1.082   6.715
    1GIB0   C2B  113   4.002   1.044   6.220
    1GIB0   C3B  114   3.939   1.128   5.741
    1GIB0   C4B  115   3.934   1.201   5.263
    1GIB0   C5B  116   4.092   0.999   4.848
    1GIB0   PO4  117   2.097   0.100   7.629
    1GIB0    A0  118   2.219   0.464   7.623
    1GIB0    B0  119   2.418   0.377   7.921
    1GIB0    C0  120   2.449   0.726   7.760
    1GIB0   VS0  121   2.362   0.523   7.768
    1GIB0    A1  122   2.094   0.350   8.073
    1GIB0    B1  123   2.119   0.367   8.426
    1GIB0    C1  124   2.401   0.351   8.226
    1GIB0    D1  125   2.555   0.249   8.332
    1GIB0   VS1  126   2.205   0.356   8.241
    1GIB0    A2  127   2.084   0.147   8.681
    1GIB0    B2  128   2.162   0.301   9.019
    1GIB0    C2  129   2.383   0.500   8.758
    1GIB0   VS2  130   2.210   0.316   8.819
    1GIB0    A3  131   2.244   0.279   9.358
    1GIB0    B3  132   2.131   0.490   9.522
    1GIB0    C3  133   2.292   0.683   9.307
    1GIB0   VS3  134   2.222   0.484   9.396
    1GIB0   NOH  135   2.197   0.138   7.172
    1GIB0   GLA  136   2.057   0.066   6.919
    1GIB0   GLB  137   2.375   0.367   7.104
    1GIB0   C1A  138   1.929   0.061   6.491
    1GIB0   C2A  139   1.933   0.285   6.059
    1GIB0   C3A  140   1.925   0.479   5.604
    1GIB0   C1B  141   2.349   0.363   6.601
    1GIB0   C2B  142   2.446   0.447   6.130
    1GIB0   C3B  143   2.719   0.670   5.808
    1GIB0   C4B  144   2.572   0.599   5.365
    1GIB0   C5B  145   2.600   0.779   4.932
    1GIB0   PO4  146   3.501   3.754   7.585
    1GIB0    A0  147   3.749   3.492   7.596
    1GIB0    B0  148   3.818   3.636   7.928
    1GIB0    C0  149   3.793   3.253   7.882
    1GIB0   VS0  150   3.787   3.460   7.802
    1GIB0    A1  151   3.486   3.458   8.047
    1GIB0    B1  152   3.520   3.465   8.400
    1GIB0    C1  153   3.797   3.457   8.192
    1GIB0    D1  154   3.954   3.354   8.292
    1GIB0   VS1  155   3.601   3.460   8.213
    1GIB0    A2  156   3.471   3.312   8.702
    1GIB0    B2  157   3.634   3.464   9.010
    1GIB0    C2  158   3.882   3.541   8.711
    1GIB0   VS2  159   3.662   3.439   8.807
    1GIB0    A3  160   3.672   3.539   9.348
    1GIB0    B3  161   3.914   3.671   9.439
    1GIB0    C3  162   4.052   3.385   9.350
    1GIB0   VS3  163   3.879   3.531   9.379
    1GIB0   NOH  164   3.555   3.590   7.134
    1GIB0   GLA  165   3.576   3.718   6.857
    1GIB0   GLB  166   3.827   3.444   7.112
    1GIB0   C1A  167   3.571   3.787   6.411
    1GIB0   C2A  168   3.473   3.783   5.938
    1GIB0   C3A  169   3.522   3.848   5.471
    1GIB0   C1B  170   3.887   3.405   6.607
    1GIB0   C2B  171   3.752   3.369   6.139
    1GIB0   C3B  172   3.978   3.749   5.954
    1GIB0   C4B  173   3.995   3.593   5.504
    1GIB0   C5B  174   4.048   3.449   5.050
    1GIB0   PO4  175   3.550   4.790   7.629
    1GIB0    A0  176   3.934   4.757   7.629
    1GIB0    B0  177   3.875   4.563   7.937
    1GIB0    C0  178   4.206   4.524   7.742
    1GIB0   VS0  179   4.005   4.614   7.770
    1GIB0    A1  180   4.080   4.841   8.114
    1GIB0    B1  181   4.049   4.715   8.444
    1GIB0    C1  182   3.786   4.698   8.219
    1GIB0    D1  183   3.603   4.710   8.327
    1GIB0   VS1  184   3.972   4.751   8.259
    1GIB0    A2  185   3.995   4.461   8.688
    1GIB0    B2  186   3.964   4.569   9.050
    1GIB0    C2  187   4.193   4.842   8.878
    1GIB0   VS2  188   4.051   4.624   8.872
    1GIB0    A3  189   3.970   4.557   9.407
    1GIB0    B3  190   3.819   4.747   9.565
    1GIB0    C3  191   4.011   4.964   9.407
    1GIB0   VS3  192   3.933   4.756   9.460
    1GIB0   NOH  193   3.718   4.671   7.195
    1GIB0   GLA  194   3.767   4.477   6.959
    1GIB0   GLB  195   3.972   4.836   7.158
    1GIB0   C1A  196   3.825   4.381   6.498
    1GIB0   C2A  197   3.833   4.285   6.006
    1GIB0   C3A  198   3.806   4.291   5.510
    1GIB0   C1B  199   3.951   4.888   6.663
    1GIB0   C2B  200   3.861   4.853   6.184
    1GIB0   C3B  201   4.134   4.914   5.789
    1GIB0   C4B  202   4.152   4.869   5.303
    1GIB0   C5B  203   4.240   4.870   4.821
    1GIB0   PO4  204   1.227   1.645   7.590
    1GIB0    A0  205   1.217   1.292   7.674
    1GIB0    B0  206   1.000   1.391   7.956
    1GIB0    C0  207   1.095   1.020   7.902
    1GIB0   VS0  208   1.104   1.234   7.844
    1GIB0    A1  209   1.320   1.538   8.076
    1GIB0    B1  210   1.317   1.526   8.430
    1GIB0    C1  211   1.027   1.581   8.250
    1GIB0    D1  212   0.896   1.704   8.365
    1GIB0   VS1  213   1.221   1.548   8.252
    1GIB0    A2  214   1.395   1.668   8.744
    1GIB0    B2  215   1.228   1.539   9.060
    1GIB0    C2  216   1.008   1.402   8.761
    1GIB0   VS2  217   1.211   1.536   8.855
    1GIB0    A3  218   1.085   1.585   9.388
    1GIB0    B3  219   1.205   1.461   9.621
    1GIB0    C3  220   1.097   1.185   9.477
    1GIB0   VS3  221   1.129   1.411   9.495
    1GIB0   NOH  222   1.241   1.517   7.148
    1GIB0   GLA  223   1.327   1.650   6.895
    1GIB0   GLB  224   1.084   1.268   7.120
    1GIB0   C1A  225   1.473   1.596   6.468
    1GIB0   C2A  226   1.481   1.565   5.978
    1GIB0   C3A  227   1.451   1.557   5.490
    1GIB0   C1B  228   1.037   1.289   6.628
    1GIB0   C2B  229   1.086   1.129   6.187
    1GIB0   C3B  230   0.999   1.408   5.821
    1GIB0   C4B  231   0.963   1.438   5.367
    1GIB0   C5B  232   0.986   1.001   5.161
    1GIB0   PO4  233   1.790   4.350   7.501
    1GIB0    A0  234   1.603   4.628   7.616
    1GIB0    B0  235   1.768   4.545   7.936
    1GIB0    C0  236   1.601   4.889   7.886
    1GIB0   VS0  237   1.657   4.687   7.812
    1GIB0    A1  238   1.416   4.380   7.957
    1GIB0    B1  239   1.418   4.257   8.289
    1GIB0    C1  240   1.711   4.293   8.109
    1GIB0    D1  241   1.850   4.143   8.172
    1GIB0   VS1  242   1.515   4.310   8.118
    1GIB0    A2  243   1.403   4.093   8.615
    1GIB0    B2  244   1.391   4.300   8.933
    1GIB0    C2  245   1.692   4.448   8.723
    1GIB0   VS2  246   1.495   4.280   8.757
    1GIB0    A3  247   1.294   4.433   9.260
    1GIB0    B3  248   1.354   4.700   9.358
    1GIB0    C3  249   1.660   4.578   9.375
    1GIB0   VS3  250   1.436   4.570   9.331
    1GIB0   NOH  251   1.474   4.421   7.143
    1GIB0   GLA  252   1.324   4.306   6.900
    1GIB0   GLB  253   1.747   4.497   7.049
    1GIB0   C1A  254   1.174   4.352   6.436
    1GIB0   C2A  255   1.093   4.432   5.928
    1GIB0   C3A  256   1.090   4.575   5.434
    1GIB0   C1B  257   1.661   4.528   6.562
    1GIB0   C2B  258   1.592   4.365   6.109
    1GIB0   C3B  259   1.563   4.588   5.680
    1GIB0   C4B  260   1.645   4.558   5.205
    1GIB0   C5B  261   1.734   4.356   4.760
    1GIB0   PO4  262   2.656   1.426   7.589
    1GIB0    A0  263   2.301   1.370   7.637
    1GIB0    B0  264   2.379   1.559   7.944
    1GIB0    C0  265   2.013   1.482   7.849
    1GIB0   VS0  266   2.231   1.470   7.810
    1GIB0    A1  267   2.335   1.186   8.060
    1GIB0    B1  268   2.394   1.262   8.401
    1GIB0    C1  269   2.556   1.434   8.148
    1GIB0    D1  270   2.748   1.495   8.218
    1GIB0   VS1  271   2.428   1.294   8.203
    1GIB0    A2  272   2.215   1.348   8.693
    1GIB0    B2  273   2.391   1.285   9.024
    1GIB0    C2  274   2.584   1.064   8.757
    1GIB0   VS2  275   2.397   1.232   8.825
    1GIB0    A3  276   2.444   1.158   9.352
    1GIB0    B3  277   2.262   1.278   9.543
    1GIB0    C3  278   2.424   1.553   9.460
    1GIB0   VS3  279   2.377   1.330   9.451
    1GIB0   NOH  280   2.512   1.312   7.143
    1GIB0   GLA  281   2.524   1.135   6.894
    1GIB0   GLB  282   2.364   1.552   7.038
    1GIB0   C1A  283   2.395   1.008   6.459
    1GIB0   C2A  284   2.350   1.002   5.959
    1GIB0   C3A  285   2.302   1.031   5.462
    1GIB0   C1B  286   2.457   1.523   6.546
    1GIB0   C2B  287   2.391   1.524   6.064
    1GIB0   C3B  288   2.611   1.400   5.652
    1GIB0   C4B  289   2.311   1.590   5.319
    1GIB0   C5B  290   1.927   1.543   5.015
    1GIB0   PO4  291   4.832   4.555   7.508
    1GIB0    A0  292   4.587   4.277   7.545
    1GIB0    B0  293   4.610   4.268   7.913
    1GIB0    C0  294   4.629   3.942   7.707
    1GIB0   VS0  295   4.609   4.162   7.722
    1GIB0    A1  296   4.627   4.633   7.979
    1GIB0    B1  297   4.731   4.688   8.313
    1GIB0    C1  298   4.692   4.368   8.188
    1GIB0    D1  299   4.632   4.239   8.346
    1GIB0   VS1  300   4.683   4.563   8.160
    1GIB0    A2  301   4.677   4.857   8.604
    1GIB0    B2  302   4.611   4.758   8.965
    1GIB0    C2  303   4.441   4.475   8.746
    1GIB0   VS2  304   4.576   4.697   8.772
    1GIB0    A3  305   4.434   4.821   9.259
    1GIB0    B3  306   4.536   4.667   9.482
    1GIB0    C3  307   4.406   4.416   9.312
    1GIB0   VS3  308   4.459   4.635   9.351
    1GIB0   NOH  309   4.561   4.738   7.187
    1GIB0   GLA  310   4.724   4.734   6.932
    1GIB0   GLB  311   4.388   4.497   7.162
    1GIB0   C1A  312   4.651   4.884   6.520
    1GIB0   C2A  313   4.611   4.920   6.042
    1GIB0   C3A  314   4.598   4.798   5.575
    1GIB0   C1B  315   4.287   4.532   6.677
    1GIB0   C2B  316   4.275   4.543   6.195
    1GIB0   C3B  317   4.250   4.440   5.729
    1GIB0   C4B  318   4.395   4.362   5.289
    1GIB0   C5B  319   4.533   4.406   4.834
    1GIB0   PO4  320   3.448   0.505   7.391
    1GIB0    A0  321   3.753   0.319   7.575
    1GIB0    B0  322   3.486   0.197   7.799
    1GIB0    C0  323   3.854   0.096   7.859
    1GIB0   VS0  324   3.698   0.204   7.744
    1GIB0    A1  325   3.611   0.507   7.976
    1GIB0    B1  326   3.657   0.421   8.317
    1GIB0    C1  327   3.475   0.218   8.104
    1GIB0    D1  328   3.322   0.120   8.216
    1GIB0   VS1  329   3.581   0.382   8.132
    1GIB0    A2  330   3.744   0.568   8.622
    1GIB0    B2  331   3.626   0.396   8.939
    1GIB0    C2  332   3.393   0.256   8.650
    1GIB0   VS2  333   3.588   0.407   8.737
    1GIB0    A3  334   3.523   0.418   9.271
    1GIB0    B3  335   3.666   0.271   9.476
    1GIB0    C3  336   3.537   0.011   9.320
    1GIB0   VS3  337   3.576   0.233   9.356
    1GIB0   NOH  338   3.775   0.480   7.073
    1GIB0   GLA  339   3.616   0.673   6.906
    1GIB0   GLB  340   3.676   0.203   7.026
    1GIB0   C1A  341   3.601   0.755   6.465
    1GIB0   C2A  342   3.654   0.726   5.986
    1GIB0   C3A  343   3.706   0.687   5.513
    1GIB0   C1B  344   3.626   0.244   6.534
    1GIB0   C2B  345   3.419   0.187   6.113
    1GIB0   C3B  346   3.783   0.265   5.822
    1GIB0   C4B  347   3.710   0.198   5.361
    1GIB0   C5B  348   3.615   0.398   4.946
    1GIB0   PO4  349   2.245   2.412   7.587
    1GIB0    A0  350   2.195   2.034   7.621
    1GIB0    B0  351   2.008   2.149   7.918
    1GIB0    C0  352   1.869   1.866   7.696
    1GIB0   VS0  353   2.024   2.017   7.745
    1GIB0    A1  354   2.076   1.820   8.111
    1GIB0    B1  355   2.124   1.996   8.414
    1GIB0    C1  356   2.309   2.071   8.131
    1GIB0    D1  357   2.501   2.141   8.191
    1GIB0   VS1  358   2.170   1.963   8.219
    1GIB0    A2  359   1.928   2.162   8.653
    1GIB0    B2  360   2.092   2.198   8.994
    1GIB0    C2  361   2.276   1.893   8.820
    1GIB0   VS2  362   2.099   2.084   8.822
    1GIB0    A3  363   2.114   2.264   9.331
    1GIB0    B3  364   2.303   2.097   9.474
    1GIB0    C3  365   2.091   1.858   9.387
    1GIB0   VS3  366   2.169   2.073   9.397
    1GIB0   NOH  367   2.097   2.231   7.156
    1GIB0   GLA  368   2.045   2.353   6.878
    1GIB0   GLB  369   2.271   2.002   7.068
    1GIB0   C1A  370   1.945   2.404   6.442
    1GIB0   C2A  371   1.818   2.457   5.975
    1GIB0   C3A  372   1.793   2.432   5.491
    1GIB0   C1B  373   2.075   1.887   6.617
    1GIB0   C2B  374   1.948   1.940   6.148
    1GIB0   C3B  375   2.182   1.928   5.728
    1GIB0   C4B  376   1.946   1.967   5.311
    1GIB0   C5B  377   2.187   1.970   4.897
    1GIB0   PO4  378   4.451   1.864   7.501
    1GIB0    A0  379   4.525   1.500   7.629
    1GIB0    B0  380   4.379   1.580   7.958
    1GIB0    C0  381   4.400   1.214   7.838
    1GIB0   VS0  382   4.435   1.431   7.809
    1GIB0    A1  383   4.751   1.496   8.029
    1GIB0    B1  384   4.774   1.621   8.360
    1GIB0    C1  385   4.586   1.784   8.119
    1GIB0    D1  386   4.588   1.993   8.160
    1GIB0   VS1  387   4.704   1.634   8.169
    1GIB0    A2  388   4.780   1.804   8.661
    1GIB0    B2  389   4.674   1.611   8.970
    1GIB0    C2  390   4.401   1.528   8.696
    1GIB0   VS2  391   4.618   1.648   8.776
    1GIB0    A3  392   4.672   1.491   9.309
    1GIB0    B3  393   4.451   1.364   9.448
    1GIB0    C3  394   4.327   1.669   9.439
    1GIB0   VS3  395   4.483   1.508   9.399
    1GIB0   NOH  396   4.564   1.604   7.138
    1GIB0   GLA  397   4.769   1.638   6.923
    1GIB0   GLB  398   4.290   1.547   7.039
    1GIB0   C1A  399   4.907   1.540   6.504
    1GIB0   C2A  400   4.877   1.466   6.024
    1GIB0   C3A  401   4.923   1.250   5.591
    1GIB0   C1B  402   4.382   1.598   6.554
    1GIB0   C2B  403   4.354   1.471   6.092
    1GIB0   C3B  404   4.191   1.600   5.662
    1GIB0   C4B  405   4.387   1.437   5.265
    1GIB0   C5B  406   4.298   1.485   4.800
    1GIB0   PO4  407   1.300   3.951   7.575
    1GIB0    A0  408   1.557   3.697   7.566
    1GIB0    B0  409   1.487   3.748   7.925
    1GIB0    C0  410   1.599   3.402   7.794
    1GIB0   VS0  411   1.548   3.616   7.762
    1GIB0    A1  412   1.278   3.435   8.023
    1GIB0    B1  413   1.268   3.524   8.365
    1GIB0    C1  414   1.553   3.573   8.175
    1GIB0    D1  415   1.724   3.555   8.301
    1GIB0   VS1  416   1.366   3.511   8.188
    1GIB0    A2  417   1.101   3.684   8.611
    1GIB0    B2  418   1.249   3.646   8.958
    1GIB0    C2  419   1.435   3.378   8.734
    1GIB0   VS2  420   1.261   3.569   8.768
    1GIB0    A3  421   1.193   3.583   9.290
    1GIB0    B3  422   1.363   3.697   9.495
    1GIB0    C3  423   1.590   3.504   9.353
    1GIB0   VS3  424   1.382   3.595   9.379
    1GIB0   NOH  425   1.222   3.747   7.157
    1GIB0   GLA  426   1.119   3.788   6.878
    1GIB0   GLB  427   1.478   3.590   7.119
    1GIB0   C1A  428   1.136   3.801   6.424
    1GIB0   C2A  429   1.172   3.860   5.950
    1GIB0   C3A  430   1.143   4.077   5.529
    1GIB0   C1B  431   1.553   3.596   6.622
    1GIB0   C2B  432   1.537   3.540   6.145
    1GIB0   C3B  433   1.766   3.463   5.732
    1GIB0   C4B  434   1.427   3.636   5.437
    1GIB0   C5B  435   1.196   3.558   5.019
    1GIB0   PO4  436   0.283   3.442   7.599
    1GIB0    A0  437   0.409   3.772   7.664
    1GIB0    B0  438   0.689   3.552   7.761
    1GIB0    C0  439   0.720   3.935   7.796
    1GIB0   VS0  440   0.606   3.753   7.740
    1GIB0    A1  441   0.418   3.483   8.027
    1GIB0    B1  442   0.506   3.686   8.304
    1GIB0    C1  443   0.727   3.632   8.043
    1GIB0    D1  444   0.926   3.638   8.119
    1GIB0   VS1  445   0.551   3.600   8.124
    1GIB0    A2  446   0.344   3.832   8.589
    1GIB0    B2  447   0.495   3.808   8.937
    1GIB0    C2  448   0.669   3.521   8.726
    1GIB0   VS2  449   0.502   3.720   8.750
    1GIB0    A3  450   0.474   3.722   9.279
    1GIB0    B3  451   0.549   3.918   9.480
    1GIB0    C3  452   0.852   3.855   9.365
    1GIB0   VS3  453   0.625   3.831   9.375
    1GIB0   NOH  454   0.397   3.611   7.169
    1GIB0   GLA  455   0.269   3.514   6.916
    1GIB0   GLB  456   0.690   3.651   7.097
    1GIB0   C1A  457   0.174   3.653   6.500
    1GIB0   C2A  458   0.229   3.733   6.032
    1GIB0   C3A  459   0.357   3.588   5.593
    1GIB0   C1B  460   0.662   3.749   6.612
    1GIB0   C2B  461   0.715   3.645   6.145
    1GIB0   C3B  462   0.699   3.929   5.762
    1GIB0   C4B  463   0.872   3.625   5.438
    1GIB0   C5B  464   0.610   3.661   5.040
    1GIB0   PO4  465   2.825   0.295   7.635
    1GIB0    A0  466   2.983   0.635   7.691
    1GIB0    B0  467   3.166   0.412   7.922
    1GIB0    C0  468   3.343   0.714   7.760
    1GIB0   VS0  469   3.164   0.587   7.791
    1GIB0    A1  470   3.271   0.656   8.203
    1GIB0    B1  471   3.041   0.530   8.440
    1GIB0    C1  472   2.946   0.592   8.113
    1GIB0    D1  473   2.740   0.648   8.110
    1GIB0   VS1  474   3.086   0.593   8.252
    1GIB0    A2  475   2.948   0.259   8.655
    1GIB0    B2  476   2.987   0.297   9.031
    1GIB0    C2  477   3.217   0.577   8.873
    1GIB0   VS2  478   3.051   0.378   8.853
    1GIB0    A3  479   3.121   0.284   9.356
    1GIB0    B3  480   3.029   0.492   9.537
    1GIB0    C3  481   3.173   0.689   9.314
    1GIB0   VS3  482   3.107   0.489   9.402
    1GIB0   NOH  483   2.924   0.346   7.157
    1GIB0   GLA  484   2.766   0.206   6.937
    1GIB0   GLB  485   3.203   0.363   7.021
    1GIB0   C1A  486   2.769   0.091   6.507
    1GIB0   C2A  487   2.890   0.185   6.060
    1GIB0   C3A  488   2.731   0.185   5.619
    1GIB0   C1B  489   3.148   0.446   6.529
    1GIB0   C2B  490   3.159   0.653   6.092
    1GIB0   C3B  491   3.260   0.442   5.674
    1GIB0   C4B  492   3.215   0.594   5.225
    1GIB0   C5B  493   3.189   0.605   4.742
    1GIB0   PO4  494   1.055   3.309   7.652
    1GIB0    A0  495   1.219   2.965   7.620
    1GIB0    B0  496   1.401   3.044   7.931
    1GIB0    C0  497   1.287   2.682   7.857
    1GIB0   VS0  498   1.302   2.897   7.803
    1GIB0    A1  499   1.140   2.870   8.168
    1GIB0    B1  500   1.202   3.057   8.462
    1GIB0    C1  501   1.454   2.992   8.234
    1GIB0    D1  502   1.639   2.979   8.338
    1GIB0   VS1  503   1.265   2.973   8.288
    1GIB0    A2  504   1.030   3.261   8.697
    1GIB0    B2  505   1.144   3.206   9.055
    1GIB0    C2  506   1.125   2.845   8.894
    1GIB0   VS2  507   1.100   3.104   8.882
    1GIB0    A3  508   1.184   3.167   9.401
    1GIB0    B3  509   1.343   2.937   9.480
    1GIB0    C3  510   1.095   2.771   9.338
    1GIB0   VS3  511   1.207   2.958   9.407
    1GIB0   NOH  512   1.049   3.138   7.201
    1GIB0   GLA  513   1.168   3.274   6.963
    1GIB0   GLB  514   1.023   2.847   7.105
    1GIB0   C1A  515   1.166   3.286   6.510
    1GIB0   C2A  516   1.085   3.305   6.040
    1GIB0   C3A  517   1.210   3.213   5.598
    1GIB0   C1B  518   1.130   2.778   6.617
    1GIB0   C2B  519   1.015   2.797   6.150
    1GIB0   C3B  520   1.418   2.784   5.907
    1GIB0   C4B  521   1.385   2.757   5.436
    1GIB0   C5B  522   0.959   2.922   5.273
    1POPC   NC3  523   1.494   1.894   7.338
    1POPC   PO4  524   1.599   2.123   6.996
    1POPC   GL1  525   1.359   2.048   6.604
    1POPC   GL2  526   1.490   2.314   6.515
    1POPC   C1A  527   1.163   1.919   6.216
    1POPC   D2A  528   1.479   2.076   5.862
    1POPC   C3A  529   1.425   2.052   5.406
    1POPC   C4A  530   1.476   1.775   4.995
    1POPC   C1B  531   1.303   2.392   6.206
    1POPC   C2B  532   1.034   2.326   5.902
    1POPC   C3B  533   1.010   2.416   5.445
    1POPC   C4B  534   1.327   2.402   5.070
    1POPC   NC3  535   0.846   0.864   7.277
    1POPC   PO4  536   1.137   0.710   6.981
    1POPC   GL1  537   1.204   0.520   6.575
    1POPC   GL2  538   1.282   0.239   6.622
    1POPC   C1A  539   1.194   0.619   6.140
    1POPC   D2A  540   1.060   0.877   5.723
    1POPC   C3A  541   1.280   0.618   5.408
    1POPC   C4A  542   1.654   0.433   5.150
    1POPC   C1B  543   1.431   0.127   6.287
    1POPC   C2B  544   1.488   0.091   5.870
    1POPC   C3B  545   1.289   0.078   5.432
    1POPC   C4B  546   0.973   0.288   5.117
    1POPC   NC3  547   0.070   4.902   7.287
    1POPC   PO4  548   0.357   4.741   6.985
    1POPC   GL1  549   0.393   4.740   6.559
    1POPC   GL2  550   0.093   4.779   6.580
    1POPC   C1A  551   0.535   4.805   6.148
    1POPC   D2A  552   0.545   4.443   5.809
    1POPC   C3A  553   0.565   4.630   5.399
    1POPC   C4A  554   0.752   4.484   4.985
    1POPC   C1B  555   0.052   4.837   6.219
    1POPC   C2B  556   0.105   4.813   5.810
    1POPC   C3B  557   0.109   4.882   5.347
    1POPC   C4B  558   4.897   4.423   5.325
    1POPC   NC3  559   3.494   1.944   6.989
    1POPC   PO4  560   3.920   1.939   6.918
    1POPC   GL1  561   3.752   2.084   6.561
    1POPC   GL2  562   3.890   2.357   6.552
    1POPC   C1A  563   3.645   1.982   6.145
    1POPC   D2A  564   4.019   2.105   5.833
    1POPC   C3A  565   3.939   2.013   5.387
    1POPC   C4A  566   3.862   1.741   4.981
    1POPC   C1B  567   3.769   2.436   6.205
    1POPC   C2B  568   3.596   2.433   5.821
    1POPC   C3B  569   3.620   2.706   5.416
    1POPC   C4B  570   4.077   2.576   5.277
    1POPC   NC3  571   3.394   4.036   7.235
    1POPC   PO4  572   3.113   3.882   6.946
    1POPC   GL1  573   3.126   3.707   6.544
    1POPC   GL2  574   2.905   3.514   6.645
    1POPC   C1A  575   3.012   3.867   6.138
    1POPC   D2A  576   3.011   3.994   5.650
    1POPC   C3A  577   2.699   3.902   5.315
    1POPC   C4A  578   2.927   3.890   4.884
    1POPC   C1B  579   2.807   3.442   6.297
    1POPC   C2B  580   2.790   3.425   5.888
    1POPC   C3B  581   2.702   3.387   5.431
    1POPC   C4B  582   3.122   3.560   5.242
    1POPC   NC3  583   4.336   2.014   7.087
    1POPC   PO4  584   4.513   2.379   6.920
    1POPC   GL1  585   4.502   2.195   6.565
    1POPC   GL2  586   4.698   1.972   6.602
    1POPC   C1A  587   4.442   2.264   6.142
    1POPC   D2A  588   4.791   2.354   5.800
    1POPC   C3A  589   4.584   2.350   5.391
    1POPC   C4A  590   4.430   2.463   4.930
    1POPC   C1B  591   4.674   1.857   6.248
    1POPC   C2B  592   4.612   1.860   5.839
    1POPC   C3B  593   4.796   1.734   5.421
    1POPC   C4B  594   4.836   1.713   4.941
    1POPC   NC3  595   4.843   4.281   7.144
    1POPC   PO4  596   4.761   4.133   6.750
    1POPC   GL1  597   4.536   3.816   6.554
    1POPC   GL2  598   4.722   3.582   6.558
    1POPC   C1A  599   4.466   3.898   6.126
    1POPC   D2A  600   4.339   3.956   5.652
    1POPC   C3A  601   4.520   3.796   5.265
    1POPC   C4A  602   4.369   3.751   4.802
    1POPC   C1B  603   4.798   3.545   6.190
    1POPC   C2B  604   4.796   3.651   5.780
    1POPC   C3B  605   0.002   3.901   5.416
    1POPC   C4B  606   0.037   3.460   5.206
    1POPC   NC3  607   2.068   2.672   7.262
    1POPC   PO4  608   2.271   2.903   6.959
    1POPC   GL1  609   2.112   2.855   6.551
    1POPC   GL2  610   2.418   2.879   6.500
    1POPC   C1A  611   1.910   2.963   6.161
    1POPC   D2A  612   1.831   2.944   5.669
    1POPC   C3A  613   2.030   3.203   5.345
    1POPC   C4A  614   1.939   3.228   4.876
    1POPC   C1B  615   2.414   3.045   6.175
    1POPC   C2B  616   2.360   3.141   5.783
    1POPC   C3B  617   2.279   2.788   5.487
    1POPC   C4B  618   2.264   2.868   5.008
    1POPC   NC3  619   3.535   3.125   6.940
    1POPC   PO4  620   3.920   2.925   7.020
    1POPC   GL1  621   3.828   2.801   6.630
    1POPC   GL2  622   4.107   2.826   6.515
    1POPC   C1A  623   3.608   2.883   6.267
    1POPC   D2A  624   3.853   2.878   5.843
    1POPC   C3A  625   3.666   3.202   5.571
    1POPC   C4A  626   3.578   3.195   5.088
    1POPC   C1B  627   4.128   3.068   6.227
    1POPC   C2B  628   4.174   3.261   5.856
    1POPC   C3B  629   4.152   3.092   5.408
    1POPC   C4B  630   4.196   2.957   4.942
    1POPC   NC3  631   1.628   4.009   7.253
    1POPC   PO4  632   1.945   3.769   7.078
    1POPC   GL1  633   1.998   3.769   6.619
    1POPC   GL2  634   2.051   4.070   6.606
    1POPC   C1A  635   2.061   3.633   6.189
    1POPC   D2A  636   2.338   3.675   5.775
    1POPC   C3A  637   2.114   3.699   5.381
    1POPC   C4A  638   2.273   3.590   4.934
    1POPC   C1B  639   2.018   4.125   6.231
    1POPC   C2B  640   1.998   4.090   5.810
    1POPC   C3B  641   2.209   4.188   5.374
    1POPC   C4B  642   2.104   4.054   4.912
    1POPC   NC3  643   2.902   1.551   7.225
    1POPC   PO4  644   3.057   1.953   7.079
    1POPC   GL1  645   3.108   2.071   6.648
    1POPC   GL2  646   2.956   2.339   6.656
    1POPC   C1A  647   3.042   1.947   6.217
    1POPC   D2A  648   2.775   1.867   5.799
    1POPC   C3A  649   2.926   2.024   5.385
    1POPC   C4A  650   2.721   2.228   4.979
    1POPC   C1B  651   2.991   2.411   6.286
    1POPC   C2B  652   3.060   2.381   5.873
    1POPC   C3B  653   3.128   2.517   5.418
    1POPC   C4B  654   3.182   2.527   4.939
    1POPC   NC3  655   4.356   2.805   6.915
    1POPC   PO4  656   4.583   3.161   6.811
    1POPC   GL1  657   4.529   3.009   6.459
    1POPC   GL2  658   4.769   2.818   6.473
    1POPC   C1A  659   4.609   3.121   6.069
    1POPC   D2A  660   4.434   2.800   5.744
    1POPC   C3A  661   4.668   3.162   5.555
    1POPC   C4A  662   4.587   2.830   5.227
    1POPC   C1B  663   0.026   2.960   6.239
    1POPC   C2B  664   0.124   2.952   5.836
    1POPC   C3B  665   0.022   2.696   5.442
    1POPC   C4B  666   0.070   2.955   5.036
    1POPC   NC3  667   0.829   1.594   7.381
    1POPC   PO4  668   0.681   1.843   7.040
    1POPC   GL1  669   0.560   1.965   6.615
    1POPC   GL2  670   0.276   1.850   6.625
    1POPC   C1A  671   0.613   2.192   6.220
    1POPC   D2A  672   0.564   2.195   5.717
    1POPC   C3A  673   0.914   1.938   5.523
    1POPC   C4A  674   0.569   2.104   5.205
    1POPC   C1B  675   0.190   1.827   6.253
    1POPC   C2B  676   0.140   1.906   5.841
    1POPC   C3B  677   0.094   2.149   5.413
    1POPC   C4B  678   4.858   2.215   4.980
    1POPC   NC3  679   3.257   0.926   7.364
    1POPC   PO4  680   3.032   1.161   7.042
    1POPC   GL1  681   3.019   1.210   6.618
    1POPC   GL2  682   3.168   1.475   6.611
    1POPC   C1A  683   2.818   1.188   6.225
    1POPC   D2A  684   3.014   1.095   5.791
    1POPC   C3A  685   2.882   1.007   5.366
    1POPC   C4A  686   3.040   1.105   4.924
    1POPC   C1B  687   3.218   1.518   6.238
    1POPC   C2B  688   3.191   1.586   5.825
    1POPC   C3B  689   3.107   1.489   5.359
    1POPC   C4B  690   3.469   1.390   5.031
    1POPC   NC3  691   3.217   0.108   7.421
    1POPC   PO4  692   3.017   4.817   7.105
    1POPC   GL1  693   2.984   4.723   6.675
    1POPC   GL2  694   2.722   4.607   6.632
    1POPC   C1A  695   3.127   4.740   6.240
    1POPC   D2A  696   3.215   4.546   5.777
    1POPC   C3A  697   3.091   4.729   5.367
    1POPC   C4A  698   3.101   4.279   5.159
    1POPC   C1B  699   2.658   4.684   6.269
    1POPC   C2B  700   2.746   4.716   5.863
    1POPC   C3B  701   2.693   4.429   5.478
    1POPC   C4B  702   2.549   4.794   5.193
    1POPC   NC3  703   2.648   3.141   6.905
    1POPC   PO4  704   3.086   3.110   6.953
    1POPC   GL1  705   2.999   3.097   6.550
    1POPC   GL2  706   2.857   2.833   6.555
    1POPC   C1A  707   3.150   3.138   6.155
    1POPC   D2A  708   3.321   2.850   5.812
    1POPC   C3A  709   3.167   3.074   5.455
    1POPC   C4A  710   3.098   3.023   4.995
    1POPC   C1B  711   2.799   2.807   6.185
    1POPC   C2B  712   2.790   2.833   5.765
    1POPC   C3B  713   2.734   2.827   5.281
    1POPC   C4B  714   2.709   2.715   4.796
    1POPC   NC3  715   2.006   4.739   7.385
    1POPC   PO4  716   2.272   4.635   7.042
    1POPC   GL1  717   2.114   4.628   6.641
    1POPC   GL2  718   2.352   4.844   6.618
    1POPC   C1A  719   2.045   4.621   6.210
    1POPC   D2A  720   2.311   4.477   5.833
    1POPC   C3A  721   2.088   4.667   5.483
    1POPC   C4A  722   2.127   4.575   5.007
    1POPC   C1B  723   2.346   4.992   6.278
    1POPC   C2B  724   2.316   0.009   5.866
    1POPC   C3B  725   2.253   0.146   5.407
    1POPC   C4B  726   2.012   0.081   4.983
    1POPC   NC3  727   0.638   3.278   7.363
    1POPC   PO4  728   0.665   3.169   6.933
    1POPC   GL1  729   0.399   2.960   6.607
    1POPC   GL2  730   0.323   3.226   6.503
    1POPC   C1A  731   0.483   2.776   6.207
    1POPC   D2A  732   0.688   2.679   5.770
    1POPC   C3A  733   0.520   2.700   5.352
    1POPC   C4A  734   0.585   2.897   4.904
    1POPC   C1B  735   0.432   3.247   6.143
    1POPC   C2B  736   0.615   3.186   5.767
    1POPC   C3B  737   0.511   3.217   5.285
    1POPC   C4B  738   0.324   3.324   4.821
    1GIB0   PO4  739   4.447   2.358   2.397
    1GIB0    A0  740   4.251   2.062   2.346
    1GIB0    B0  741   4.532   1.958   2.131
    1GIB0    C0  742   4.229   1.725   2.183
    1GIB0   VS0  743   4.338   1.915   2.220
    1GIB0    A1  744   4.292   2.156   1.911
    1GIB0    B1  745   4.487   2.172   1.615
    1GIB0    C1  746   4.635   2.144   1.926
    1GIB0    D1  747   4.824   2.243   1.922
    1GIB0   VS1  748   4.471   2.157   1.817
    1GIB0    A2  749   4.734   2.203   1.366
    1GIB0    B2  750   4.602   2.226   1.010
    1GIB0    C2  751   4.394   1.936   1.182
    1GIB0   VS2  752   4.577   2.122   1.186
    1GIB0    A3  753   4.540   2.295   0.672
    1GIB0    B3  754   4.328   2.143   0.546
    1GIB0    C3  755   4.517   1.887   0.634
    1GIB0   VS3  756   4.462   2.108   0.617
    1GIB0   NOH  757   4.383   2.238   2.847
    1GIB0   GLA  758   4.474   2.414   3.071
    1GIB0   GLB  759   4.386   1.950   2.934
    1GIB0   C1A  760   4.491   2.488   3.516
    1GIB0   C2A  761   4.464   2.433   4.001
    1GIB0   C3A  762   4.597   2.438   4.462
    1GIB0   C1B  763   4.477   1.944   3.433
    1GIB0   C2B  764   4.321   1.885   3.890
    1GIB0   C3B  765   4.612   1.944   4.265
    1GIB0   C4B  766   4.470   1.979   4.712
    1GIB0   C5B  767   4.386   1.935   5.171
    1GIB0   PO4  768   0.473   3.177   2.443
    1GIB0    A0  769   0.383   2.819   2.293
    1GIB0    B0  770   0.664   2.843   2.054
    1GIB0    C0  771   0.474   2.510   2.102
    1GIB0   VS0  772   0.507   2.724   2.150
    1GIB0    A1  773   0.462   3.107   1.893
    1GIB0    B1  774   0.487   3.095   1.539
    1GIB0    C1  775   0.723   2.943   1.741
    1GIB0    D1  776   0.912   2.947   1.642
    1GIB0   VS1  777   0.557   3.048   1.724
    1GIB0    A2  778   0.598   3.204   1.228
    1GIB0    B2  779   0.398   3.103   0.921
    1GIB0    C2  780   0.420   2.777   1.146
    1GIB0   VS2  781   0.472   3.028   1.098
    1GIB0    A3  782   0.274   3.116   0.587
    1GIB0    B3  783   0.052   2.947   0.509
    1GIB0    C3  784   0.266   2.706   0.582
    1GIB0   VS3  785   0.197   2.923   0.560
    1GIB0   NOH  786   0.314   3.006   2.864
    1GIB0   GLA  787   0.363   3.180   3.103
    1GIB0   GLB  788   0.181   2.759   2.974
    1GIB0   C1A  789   0.411   3.227   3.542
    1GIB0   C2A  790   0.431   3.138   4.012
    1GIB0   C3A  791   0.589   3.101   4.448
    1GIB0   C1B  792   0.273   2.735   3.467
    1GIB0   C2B  793   0.095   2.751   3.921
    1GIB0   C3B  794   0.448   2.607   4.204
    1GIB0   C4B  795   0.219   2.737   4.591
    1GIB0   C5B  796   0.283   2.471   4.980
    1GIB0   PO4  797   3.739   4.971   2.536
    1GIB0    A0  798   4.000   0.203   2.362
    1GIB0    B0  799   3.728   0.306   2.135
    1GIB0    C0  800   4.071   0.483   2.123
    1GIB0   VS0  801   3.933   0.330   2.206
    1GIB0    A1  802   3.861   4.997   1.953
    1GIB0    B1  803   3.794   0.071   1.613
    1GIB0    C1  804   3.590   0.189   1.866
    1GIB0    D1  805   3.390   0.205   1.792
    1GIB0   VS1  806   3.748   0.086   1.811
    1GIB0    A2  807   3.594   0.242   1.382
    1GIB0    B2  808   3.697   0.235   1.016
    1GIB0    C2  809   4.036   0.252   1.222
    1GIB0   VS2  810   3.776   0.243   1.207
    1GIB0    A3  811   3.683   0.323   0.679
    1GIB0    B3  812   3.840   0.170   0.489
    1GIB0    C3  813   4.091   0.280   0.672
    1GIB0   VS3  814   3.871   0.258   0.613
    1GIB0   NOH  815   3.830   0.250   2.896
    1GIB0   GLA  816   3.624   0.189   3.104
    1GIB0   GLB  817   4.102   0.202   3.009
    1GIB0   C1A  818   3.502   0.268   3.529
    1GIB0   C2A  819   3.521   0.277   4.013
    1GIB0   C3A  820   3.543   0.210   4.489
    1GIB0   C1B  821   4.045   0.315   3.491
    1GIB0   C2B  822   4.150   0.475   3.938
    1GIB0   C3B  823   4.185   0.154   4.297
    1GIB0   C4B  824   4.069   0.349   4.721
    1GIB0   C5B  825   4.048   0.574   5.155
    1GIB0   PO4  826   2.734   1.907   2.396
    1GIB0    A0  827   3.098   1.856   2.376
    1GIB0    B0  828   3.146   2.095   2.100
    1GIB0    C0  829   3.439   1.876   2.222
    1GIB0   VS0  830   3.228   1.942   2.233
    1GIB0    A1  831   2.796   2.046   1.955
    1GIB0    B1  832   2.802   1.919   1.624
    1GIB0    C1  833   3.077   2.078   1.761
    1GIB0    D1  834   3.185   2.176   1.605
    1GIB0   VS1  835   2.892   2.014   1.780
    1GIB0    A2  836   2.687   1.967   1.285
    1GIB0    B2  837   2.846   1.932   0.942
    1GIB0    C2  838   3.134   2.063   1.179
    1GIB0   VS2  839   2.889   1.987   1.135
    1GIB0    A3  840   2.870   2.005   0.597
    1GIB0    B3  841   3.075   1.910   0.415
    1GIB0    C3  842   3.274   2.066   0.627
    1GIB0   VS3  843   3.073   1.994   0.547
    1GIB0   NOH  844   2.893   1.958   2.838
    1GIB0   GLA  845   2.785   1.859   3.097
    1GIB0   GLB  846   3.186   2.031   2.864
    1GIB0   C1A  847   2.741   1.957   3.538
    1GIB0   C2A  848   2.704   1.902   4.020
    1GIB0   C3A  849   2.689   1.854   4.505
    1GIB0   C1B  850   3.272   2.089   3.356
    1GIB0   C2B  851   3.392   1.972   3.805
    1GIB0   C3B  852   3.176   1.936   4.229
    1GIB0   C4B  853   3.115   2.078   4.674
    1GIB0   C5B  854   3.307   1.874   5.055
    1GIB0   PO4  855   1.550   2.906   2.495
    1GIB0    A0  856   1.893   2.855   2.359
    1GIB0    B0  857   1.809   3.128   2.125
    1GIB0    C0  858   2.175   3.012   2.167
    1GIB0   VS0  859   1.959   2.998   2.217
    1GIB0    A1  860   1.761   2.817   1.905
    1GIB0    B1  861   1.677   2.951   1.588
    1GIB0    C1  862   1.619   3.128   1.879
    1GIB0    D1  863   1.448   3.252   1.852
    1GIB0   VS1  864   1.686   2.965   1.791
    1GIB0    A2  865   1.747   3.179   1.316
    1GIB0    B2  866   1.827   3.066   0.962
    1GIB0    C2  867   1.936   2.765   1.196
    1GIB0   VS2  868   1.837   3.003   1.158
    1GIB0    A3  869   2.019   2.987   0.671
    1GIB0    B3  870   1.886   3.020   0.416
    1GIB0    C3  871   1.685   2.790   0.540
    1GIB0   VS3  872   1.863   2.933   0.542
    1GIB0   NOH  873   1.806   3.093   2.848
    1GIB0   GLA  874   1.940   3.259   3.068
    1GIB0   GLB  875   1.891   2.809   2.893
    1GIB0   C1A  876   2.083   3.344   3.507
    1GIB0   C2A  877   2.262   3.383   3.976
    1GIB0   C3A  878   2.219   3.337   4.466
    1GIB0   C1B  879   1.878   2.771   3.391
    1GIB0   C2B  880   1.676   2.768   3.832
    1GIB0   C3B  881   1.905   3.018   4.175
    1GIB0   C4B  882   1.839   2.822   4.607
    1GIB0   C5B  883   1.764   2.718   5.069
    1GIB0   PO4  884   0.732   0.212   2.362
    1GIB0    A0  885   0.883   0.531   2.401
    1GIB0    B0  886   1.062   0.477   2.083
    1GIB0    C0  887   1.239   0.647   2.380
    1GIB0   VS0  888   1.061   0.552   2.288
    1GIB0    A1  889   0.768   0.357   1.911
    1GIB0    B1  890   0.862   0.266   1.582
    1GIB0    C1  891   1.081   0.434   1.791
    1GIB0    D1  892   1.208   0.557   1.672
    1GIB0   VS1  893   0.904   0.352   1.761
    1GIB0    A2  894   0.652   0.108   1.345
    1GIB0    B2  895   0.707   0.181   0.976
    1GIB0    C2  896   0.846   0.498   1.169
    1GIB0   VS2  897   0.735   0.262   1.164
    1GIB0    A3  898   0.648   0.221   0.647
    1GIB0    B3  899   0.906   0.201   0.517
    1GIB0    C3  900   0.960   0.486   0.674
    1GIB0   VS3  901   0.838   0.303   0.613
    1GIB0   NOH  902   0.592   0.256   2.810
    1GIB0   GLA  903   0.475   0.116   3.050
    1GIB0   GLB  904   0.753   0.497   2.887
    1GIB0   C1A  905   0.295   0.185   3.468
    1GIB0   C2A  906   0.258   0.219   3.951
    1GIB0   C3A  907   0.169   0.245   4.423
    1GIB0   C1B  908   0.697   0.505   3.383
    1GIB0   C2B  909   0.678   0.603   3.857
    1GIB0   C3B  910   0.881   0.304   4.155
    1GIB0   C4B  911   0.747   0.534   4.549
    1GIB0   C5B  912   0.536   0.521   4.975
    1GIB0   PO4  913   3.279   2.853   2.421
    1GIB0    A0  914   3.379   3.191   2.296
    1GIB0    B0  915   3.047   3.190   2.136
    1GIB0    C0  916   3.293   3.481   2.075
    1GIB0   VS0  917   3.239   3.287   2.169
    1GIB0    A1  918   3.162   2.893   1.948
    1GIB0    B1  919   3.231   2.969   1.609
    1GIB0    C1  920   3.102   3.207   1.824
    1GIB0    D1  921   2.980   3.341   1.713
    1GIB0   VS1  922   3.165   3.023   1.794
    1GIB0    A2  923   3.155   2.827   1.292
    1GIB0    B2  924   3.155   3.043   0.979
    1GIB0    C2  925   3.099   3.293   1.281
    1GIB0   VS2  926   3.136   3.054   1.184
    1GIB0    A3  927   3.044   3.131   0.649
    1GIB0    B3  928   3.209   3.214   0.425
    1GIB0    C3  929   3.261   3.478   0.616
    1GIB0   VS3  930   3.172   3.274   0.563
    1GIB0   NOH  931   3.185   2.986   2.857
    1GIB0   GLA  932   3.177   2.766   3.062
    1GIB0   GLB  933   3.104   3.256   2.945
    1GIB0   C1A  934   3.141   2.626   3.490
    1GIB0   C2A  935   3.067   2.584   3.965
    1GIB0   C3A  936   3.113   2.614   4.451
    1GIB0   C1B  937   3.164   3.210   3.432
    1GIB0   C2B  938   3.215   3.403   3.859
    1GIB0   C3B  939   3.166   3.048   4.164
    1GIB0   C4B  940   2.919   3.119   4.541
    1GIB0   C5B  941   3.177   3.460   4.753
    1GIB0   PO4  942   0.069   1.067   2.509
    1GIB0    A0  943   4.933   1.399   2.418
    1GIB0    B0  944   4.764   1.220   2.143
    1GIB0    C0  945   4.614   1.546   2.286
    1GIB0   VS0  946   4.770   1.388   2.282
    1GIB0    A1  947   4.948   1.490   1.941
    1GIB0    B1  948   4.938   1.374   1.607
    1GIB0    C1  949   4.925   1.154   1.874
    1GIB0    D1  950   0.016   0.970   1.816
    1GIB0   VS1  951   4.937   1.339   1.807
    1GIB0    A2  952   4.821   1.118   1.402
    1GIB0    B2  953   4.827   1.185   1.028
    1GIB0    C2  954   4.757   1.536   1.197
    1GIB0   VS2  955   4.802   1.280   1.209
    1GIB0    A3  956   4.752   1.184   0.691
    1GIB0    B3  957   4.961   1.312   0.536
    1GIB0    C3  958   4.870   1.576   0.712
    1GIB0   VS3  959   4.861   1.357   0.646
    1GIB0   NOH  960   4.789   1.146   2.876
    1GIB0   GLA  961   4.739   1.018   3.144
    1GIB0   GLB  962   4.934   1.402   2.913
    1GIB0   C1A  963   4.638   1.052   3.588
    1GIB0   C2A  964   4.513   0.996   4.056
    1GIB0   C3A  965   4.525   0.946   4.543
    1GIB0   C1B  966   4.777   1.516   3.375
    1GIB0   C2B  967   4.829   1.476   3.859
    1GIB0   C3B  968   4.957   1.180   4.211
    1GIB0   C4B  969   4.734   1.429   4.536
    1GIB0   C5B  970   4.739   1.221   4.969
    1GIB0   PO4  971   4.176   3.811   2.415
    1GIB0    A0  972   4.479   3.580   2.311
    1GIB0    B0  973   4.595   3.842   2.079
    1GIB0    C0  974   4.822   3.541   2.163
    1GIB0   VS0  975   4.632   3.655   2.184
    1GIB0    A1  976   4.302   3.695   1.890
    1GIB0    B1  977   4.359   3.714   1.540
    1GIB0    C1  978   4.581   3.853   1.767
    1GIB0    D1  979   4.673   4.023   1.677
    1GIB0   VS1  980   4.414   3.754   1.732
    1GIB0    A2  981   4.437   3.955   1.307
    1GIB0    B2  982   4.399   3.797   0.964
    1GIB0    C2  983   4.539   3.510   1.197
    1GIB0   VS2  984   4.458   3.754   1.156
    1GIB0    A3  985   4.412   3.778   0.624
    1GIB0    B3  986   4.438   3.532   0.473
    1GIB0    C3  987   4.651   3.458   0.713
    1GIB0   VS3  988   4.500   3.589   0.603
    1GIB0   NOH  989   4.426   3.689   2.823
    1GIB0   GLA  990   4.459   3.844   3.091
    1GIB0   GLB  991   4.647   3.489   2.892
    1GIB0   C1A  992   4.337   3.913   3.523
    1GIB0   C2A  993   4.251   3.968   3.989
    1GIB0   C3A  994   4.405   4.081   4.425
    1GIB0   C1B  995   4.535   3.425   3.383
    1GIB0   C2B  996   4.499   3.520   3.866
    1GIB0   C3B  997   4.733   3.647   4.275
    1GIB0   C4B  998   4.822   3.540   4.738
    1GIB0   C5B  999   4.558   3.313   5.072
    1GIB0   PO4 1000   0.642   1.874   2.394
    1GIB0    A0 1001   0.410   1.605   2.372
    1GIB0    B0 1002   0.649   1.496   2.112
    1GIB0    C0 1003   0.444   1.237   2.313
    1GIB0   VS0 1004   0.501   1.446   2.266
    1GIB0    A1 1005   0.359   1.587   1.896
    1GIB0    B1 1006   0.496   1.574   1.570
    1GIB0    C1 1007   0.695   1.638   1.845
    1GIB0    D1 1008   0.856   1.765   1.786
    1GIB0   VS1 1009   0.516   1.600   1.770
    1GIB0    A2 1010   0.742   1.459   1.372
    1GIB0    B2 1011   0.692   1.473   0.995
    1GIB0    C2 1012   0.332   1.411   1.148
    1GIB0   VS2 1013   0.589   1.448   1.172
    1GIB0    A3 1014   0.701   1.379   0.663
    1GIB0    B3 1015   0.632   1.597   0.484
    1GIB0    C3 1016   0.343   1.577   0.641
    1GIB0   VS3 1017   0.558   1.518   0.596
    1GIB0   NOH 1018   0.669   1.639   2.815
    1GIB0   GLA 1019   0.754   1.552   3.097
    1GIB0   GLB 1020   0.384   1.524   2.826
    1GIB0   C1A 1021   0.738   1.540   3.555
    1GIB0   C2A 1022   0.646   1.377   4.012
    1GIB0   C3A 1023   0.709   1.429   4.496
    1GIB0   C1B 1024   0.281   1.546   3.320
    1GIB0   C2B 1025   0.308   1.712   3.788
    1GIB0   C3B 1026   0.241   1.597   4.259
    1GIB0   C4B 1027   0.219   1.435   4.712
    1GIB0   C5B 1028   0.178   1.408   5.191
    1GIB0   PO4 1029   2.017   1.698   2.397
    1GIB0    A0 1030   2.070   2.046   2.274
    1GIB0    B0 1031   1.981   1.904   1.946
    1GIB0    C0 1032   1.973   2.285   2.003
    1GIB0   VS0 1033   2.008   2.078   2.074
    1GIB0    A1 1034   2.360   1.977   1.933
    1GIB0    B1 1035   2.365   2.004   1.580
    1GIB0    C1 1036   2.219   1.733   1.737
    1GIB0    D1 1037   2.239   1.562   1.612
    1GIB0   VS1 1038   2.315   1.905   1.750
    1GIB0    A2 1039   2.261   1.850   1.281
    1GIB0    B2 1040   2.284   2.057   0.963
    1GIB0    C2 1041   2.180   2.312   1.247
    1GIB0   VS2 1042   2.241   2.073   1.164
    1GIB0    A3 1043   2.252   2.096   0.617
    1GIB0    B3 1044   2.386   2.323   0.495
    1GIB0    C3 1045   2.157   2.493   0.661
    1GIB0   VS3 1046   2.265   2.304   0.591
    1GIB0   NOH 1047   2.115   2.016   2.773
    1GIB0   GLA 1048   2.275   1.936   3.023
    1GIB0   GLB 1049   2.088   2.312   2.850
    1GIB0   C1A 1050   2.246   1.824   3.460
    1GIB0   C2A 1051   2.182   1.909   3.927
    1GIB0   C3A 1052   2.203   2.037   4.394
    1GIB0   C1B 1053   2.149   2.323   3.352
    1GIB0   C2B 1054   2.066   2.413   3.829
    1GIB0   C3B 1055   2.190   2.564   4.275
    1GIB0   C4B 1056   2.193   2.455   4.742
    1GIB0   C5B 1057   2.255   2.370   5.213
    1GIB0   PO4 1058   2.954   4.188   2.400
    1GIB0    A0 1059   2.776   3.845   2.346
    1GIB0    B0 1060   2.976   3.802   2.039
    1GIB0    C0 1061   2.775   3.506   2.184
    1GIB0   VS0 1062   2.842   3.718   2.189
    1GIB0    A1 1063   2.624   3.874   1.901
    1GIB0    B1 1064   2.724   3.937   1.567
    1GIB0    C1 1065   2.925   4.025   1.835
    1GIB0    D1 1066   3.037   4.199   1.783
    1GIB0   VS1 1067   2.758   3.945   1.768
    1GIB0    A2 1068   2.969   4.036   1.331
    1GIB0    B2 1069   2.949   3.910   0.973
    1GIB0    C2 1070   2.813   3.613   1.197
    1GIB0   VS2 1071   2.911   3.853   1.167
    1GIB0    A3 1072   3.029   3.850   0.631
    1GIB0    B3 1073   2.822   3.760   0.450
    1GIB0    C3 1074   2.811   3.504   0.658
    1GIB0   VS3 1075   2.887   3.705   0.580
    1GIB0   NOH 1076   2.912   4.013   2.844
    1GIB0   GLA 1077   2.769   4.117   3.091
    1GIB0   GLB 1078   2.901   3.712   2.884
    1GIB0   C1A 1079   2.789   4.184   3.537
    1GIB0   C2A 1080   2.859   4.193   4.014
    1GIB0   C3A 1081   2.741   4.079   4.461
    1GIB0   C1B 1082   2.851   3.662   3.382
    1GIB0   C2B 1083   2.750   3.693   3.858
    1GIB0   C3B 1084   2.979   3.640   4.277
    1GIB0   C4B 1085   2.669   3.554   4.619
    1GIB0   C5B 1086   2.627   3.225   4.961
    1GIB0   PO4 1087   2.090   4.112   2.342
    1GIB0    A0 1088   1.779   4.089   2.341
    1GIB0    B0 1089   1.833   3.729   2.284
    1GIB0    C0 1090   1.478   3.866   2.350
    1GIB0   VS0 1091   1.697   3.895   2.325
    1GIB0    A1 1092   2.058   3.741   1.960
    1GIB0    B1 1093   1.982   4.002   1.733
    1GIB0    C1 1094   1.762   3.913   1.985
    1GIB0    D1 1095   1.563   3.949   1.919
    1GIB0   VS1 1096   1.934   3.885   1.893
    1GIB0    A2 1097   2.147   4.105   1.427
    1GIB0    B2 1098   2.007   4.044   1.079
    1GIB0    C2 1099   1.797   3.810   1.320
    1GIB0   VS2 1100   1.984   3.987   1.275
    1GIB0    A3 1101   2.047   3.937   0.730
    1GIB0    B3 1102   1.900   4.034   0.500
    1GIB0    C3 1103   1.654   3.862   0.638
    1GIB0   VS3 1104   1.867   3.944   0.623
    1GIB0   NOH 1105   2.025   3.974   2.814
    1GIB0   GLA 1106   2.186   4.065   3.062
    1GIB0   GLB 1107   1.850   3.754   2.929
    1GIB0   C1A 1108   2.292   4.050   3.517
    1GIB0   C2A 1109   2.373   4.033   4.005
    1GIB0   C3A 1110   2.276   3.863   4.452
    1GIB0   C1B 1111   1.828   3.831   3.425
    1GIB0   C2B 1112   1.875   3.999   3.881
    1GIB0   C3B 1113   1.833   3.595   4.138
    1GIB0   C4B 1114   1.826   3.658   4.599
    1GIB0   C5B 1115   1.735   3.653   5.048
    1GIB0   PO4 1116   2.918   1.147   2.449
    1GIB0    A0 1117   3.019   1.445   2.267
    1GIB0    B0 1118   2.720   1.343   2.076
    1GIB0    C0 1119   2.923   1.654   1.970
    1GIB0   VS0 1120   2.887   1.481   2.104
    1GIB0    A1 1121   3.002   1.118   1.973
    1GIB0    B1 1122   3.058   1.165   1.626
    1GIB0    C1 1123   2.760   1.258   1.774
    1GIB0    D1 1124   2.603   1.237   1.631
    1GIB0   VS1 1125   2.940   1.181   1.791
    1GIB0    A2 1126   2.916   1.096   1.322
    1GIB0    B2 1127   3.004   1.246   0.984
    1GIB0    C2 1128   2.981   1.553   1.233
    1GIB0   VS2 1129   2.967   1.299   1.180
    1GIB0    A3 1130   3.004   1.241   0.639
    1GIB0    B3 1131   3.050   1.494   0.505
    1GIB0    C3 1132   2.787   1.586   0.682
    1GIB0   VS3 1133   2.947   1.440   0.609
    1GIB0   NOH 1134   3.086   1.323   2.856
    1GIB0   GLA 1135   3.080   1.133   3.085
    1GIB0   GLB 1136   3.157   1.597   2.938
    1GIB0   C1A 1137   3.174   0.997   3.502
    1GIB0   C2A 1138   3.122   0.991   3.976
    1GIB0   C3A 1139   3.001   0.967   4.437
    1GIB0   C1B 1140   3.086   1.592   3.429
    1GIB0   C2B 1141   3.227   1.498   3.876
    1GIB0   C3B 1142   2.923   1.446   4.230
    1GIB0   C4B 1143   3.097   1.547   4.660
    1GIB0   C5B 1144   2.801   1.706   5.002
    1GIB0   PO4 1145   0.075   4.474   2.405
    1GIB0    A0 1146   4.964   4.798   2.237
    1GIB0    B0 1147   4.659   4.618   2.133
    1GIB0    C0 1148   4.728   4.977   2.007
    1GIB0   VS0 1149   4.783   4.798   2.126
    1GIB0    A1 1150   4.904   4.403   1.946
    1GIB0    B1 1151   4.849   4.438   1.598
    1GIB0    C1 1152   4.618   4.553   1.829
    1GIB0    D1 1153   4.423   4.538   1.744
    1GIB0   VS1 1154   4.790   4.465   1.791
    1GIB0    A2 1155   4.600   4.364   1.371
    1GIB0    B2 1156   4.724   4.438   1.019
    1GIB0    C2 1157   4.898   4.707   1.251
    1GIB0   VS2 1158   4.741   4.503   1.214
    1GIB0    A3 1159   4.726   4.449   0.669
    1GIB0    B3 1160   4.980   4.508   0.543
    1GIB0    C3 1161   4.938   4.798   0.695
    1GIB0   VS3 1162   4.881   4.585   0.636
    1GIB0   NOH 1163   4.851   4.605   2.815
    1GIB0   GLA 1164   4.708   4.466   3.049
    1GIB0   GLB 1165   4.965   4.854   2.944
    1GIB0   C1A 1166   4.624   4.351   3.491
    1GIB0   C2A 1167   4.686   4.234   3.962
    1GIB0   C3A 1168   4.724   4.491   4.367
    1GIB0   C1B 1169   4.972   4.748   3.431
    1GIB0   C2B 1170   4.782   4.735   3.874
    1GIB0   C3B 1171   4.718   0.006   4.265
    1GIB0   C4B 1172   4.903   4.853   4.676
    1GIB0   C5B 1173   4.686   4.826   5.088
    1GIB0   PO4 1174   2.464   0.228   2.409
    1GIB0    A0 1175   2.805   0.360   2.242
    1GIB0    B0 1176   2.602   0.563   2.011
    1GIB0    C0 1177   2.984   0.611   2.028
    1GIB0   VS0 1178   2.797   0.511   2.094
    1GIB0    A1 1179   2.611   0.229   1.826
    1GIB0    B1 1180   2.767   0.364   1.538
    1GIB0    C1 1181   2.516   0.535   1.704
    1GIB0    D1 1182   2.408   0.652   1.562
    1GIB0   VS1 1183   2.631   0.376   1.689
    1GIB0    A2 1184   2.838   0.646   1.358
    1GIB0    B2 1185   2.759   0.551   0.998
    1GIB0    C2 1186   2.941   0.235   1.154
    1GIB0   VS2 1187   2.846   0.477   1.170
    1GIB0    A3 1188   2.628   0.502   0.686
    1GIB0    B3 1189   2.554   0.224   0.644
    1GIB0    C3 1190   2.877   0.176   0.687
    1GIB0   VS3 1191   2.686   0.301   0.672
    1GIB0   NOH 1192   2.708   0.370   2.823
    1GIB0   GLA 1193   2.790   0.535   3.073
    1GIB0   GLB 1194   2.759   0.087   2.926
    1GIB0   C1A 1195   2.813   0.638   3.539
    1GIB0   C2A 1196   2.731   0.663   4.026
    1GIB0   C3A 1197   2.662   0.563   4.493
    1GIB0   C1B 1198   2.996   0.137   3.365
    1GIB0   C2B 1199   2.978   0.219   3.836
    1GIB0   C3B 1200   3.075   0.348   4.282
    1GIB0   C4B 1201   2.910   0.161   4.688
    1GIB0   C5B 1202   2.921   0.181   5.169
    1GIB0   PO4 1203   4.708   3.206   2.498
    1GIB0    A0 1204   4.337   3.184   2.431
    1GIB0    B0 1205   4.424   2.928   2.180
    1GIB0    C0 1206   4.059   3.047   2.219
    1GIB0   VS0 1207   4.273   3.053   2.277
    1GIB0    A1 1208   4.561   3.233   2.008
    1GIB0    B1 1209   4.571   3.185   1.657
    1GIB0    C1 1210   4.475   2.930   1.871
    1GIB0    D1 1211   4.532   2.743   1.785
    1GIB0   VS1 1212   4.536   3.116   1.846
    1GIB0    A2 1213   4.738   3.096   1.356
    1GIB0    B2 1214   4.590   3.103   1.006
    1GIB0    C2 1215   4.285   3.033   1.249
    1GIB0   VS2 1216   4.538   3.077   1.203
    1GIB0    A3 1217   4.600   2.977   0.671
    1GIB0    B3 1218   4.562   3.116   0.420
    1GIB0    C3 1219   4.256   3.153   0.535
    1GIB0   VS3 1220   4.473   3.082   0.542
    1GIB0   NOH 1221   4.631   2.987   2.883
    1GIB0   GLA 1222   4.846   3.098   3.058
    1GIB0   GLB 1223   4.378   3.141   2.901
    1GIB0   C1A 1224   4.915   3.112   3.499
    1GIB0   C2A 1225   4.931   3.248   3.960
    1GIB0   C3A 1226   0.021   3.190   4.431
    1GIB0   C1B 1227   4.289   2.979   3.353
    1GIB0   C2B 1228   4.479   2.992   3.777
    1GIB0   C3B 1229   4.604   2.939   4.221
    1GIB0   C4B 1230   4.445   3.246   4.556
    1GIB0   C5B 1231   4.677   2.876   4.738
    1GIB0   PO4 1232   3.802   1.668   2.484
    1GIB0    A0 1233   3.500   1.446   2.399
    1GIB0    B0 1234   3.716   1.296   2.140
    1GIB0    C0 1235   3.379   1.133   2.232
    1GIB0   VS0 1236   3.532   1.292   2.257
    1GIB0    A1 1237   3.542   1.576   1.952
    1GIB0    B1 1238   3.597   1.518   1.607
    1GIB0    C1 1239   3.806   1.382   1.847
    1GIB0    D1 1240   4.002   1.365   1.766
    1GIB0   VS1 1241   3.648   1.492   1.802
    1GIB0    A2 1242   3.819   1.435   1.359
    1GIB0    B2 1243   3.679   1.432   1.006
    1GIB0    C2 1244   3.386   1.298   1.237
    1GIB0   VS2 1245   3.628   1.389   1.200
    1GIB0    A3 1246   3.711   1.424   0.662
    1GIB0    B3 1247   3.466   1.404   0.508
    1GIB0    C3 1248   3.424   1.133   0.691
    1GIB0   VS3 1249   3.534   1.320   0.620
    1GIB0   NOH 1250   3.626   1.590   2.896
    1GIB0   GLA 1251   3.816   1.653   3.120
    1GIB0   GLB 1252   3.520   1.317   2.942
    1GIB0   C1A 1253   3.872   1.688   3.576
    1GIB0   C2A 1254   3.829   1.580   4.045
    1GIB0   C3A 1255   3.812   1.481   4.533
    1GIB0   C1B 1256   3.527   1.343   3.432
    1GIB0   C2B 1257   3.607   1.145   3.856
    1GIB0   C3B 1258   3.544   0.856   4.229
    1GIB0   C4B 1259   3.482   1.056   4.646
    1GIB0   C5B 1260   3.595   0.888   5.064
    1POPC   NC3 1261   1.393   3.616   3.018
    1POPC   PO4 1262   1.305   4.041   3.064
    1POPC   GL1 1263   1.325   3.846   3.455
    1POPC   GL2 1264   1.017   3.842   3.449
    1POPC   C1A 1265   1.404   3.758   3.884
    1POPC   D2A 1266   1.356   3.608   4.362
    1POPC   C3A 1267   1.396   3.933   4.708
    1POPC   C4A 1268   1.503   4.077   5.171
    1POPC   C1B 1269   0.951   3.921   3.806
    1POPC   C2B 1270   1.013   3.958   4.214
    1POPC   C3B 1271   0.914   3.772   4.639
    1POPC   C4B 1272   0.969   4.017   5.063
    1POPC   NC3 1273   2.302   0.164   2.835
    1POPC   PO4 1274   2.368   0.286   3.249
    1POPC   GL1 1275   2.160   0.441   3.553
    1POPC   GL2 1276   1.869   0.372   3.493
    1POPC   C1A 1277   2.315   0.360   3.953
    1POPC   D2A 1278   2.208   0.700   4.291
    1POPC   C3A 1279   2.206   0.334   4.576
    1POPC   C4A 1280   2.487   0.274   4.967
    1POPC   C1B 1281   1.716   0.489   3.814
    1POPC   C2B 1282   1.712   0.586   4.223
    1POPC   C3B 1283   1.827   0.663   4.698
    1POPC   C4B 1284   2.127   0.586   5.097
    1POPC   NC3 1285   0.350   1.981   2.716
    1POPC   PO4 1286   0.610   2.046   3.057
    1POPC   GL1 1287   0.549   2.090   3.467
    1POPC   GL2 1288   0.682   2.368   3.442
    1POPC   C1A 1289   0.335   2.254   3.800
    1POPC   D2A 1290   0.403   2.078   4.242
    1POPC   C3A 1291   0.083   2.248   4.512
    1POPC   C4A 1292   0.274   1.945   4.831
    1POPC   C1B 1293   0.801   2.378   3.791
    1POPC   C2B 1294   0.873   2.253   4.177
    1POPC   C3B 1295   0.738   2.181   4.630
    1POPC   C4B 1296   0.828   2.479   4.994
    1POPC   NC3 1297   1.092   4.445   3.095
    1POPC   PO4 1298   1.279   4.849   3.108
    1POPC   GL1 1299   1.311   4.643   3.475
    1POPC   GL2 1300   1.003   4.699   3.506
    1POPC   C1A 1301   1.455   4.617   3.876
    1POPC   D2A 1302   1.351   4.361   4.289
    1POPC   C3A 1303   1.441   4.715   4.570
    1POPC   C4A 1304   1.247   4.419   4.909
    1POPC   C1B 1305   1.067   4.920   3.798
    1POPC   C2B 1306   1.137   4.865   4.198
    1POPC   C3B 1307   0.922   4.571   4.507
    1POPC   C4B 1308   1.033   4.865   4.878
    1POPC   NC3 1309   3.959   2.037   2.682
    1POPC   PO4 1310   3.985   2.140   3.103
    1POPC   GL1 1311   3.749   2.135   3.452
    1POPC   GL2 1312   3.624   2.415   3.397
    1POPC   C1A 1313   3.863   2.134   3.881
    1POPC   D2A 1314   3.714   1.968   4.326
    1POPC   C3A 1315   4.110   2.195   4.408
    1POPC   C4A 1316   4.010   2.223   4.886
    1POPC   C1B 1317   3.494   2.434   3.745
    1POPC   C2B 1318   3.481   2.379   4.158
    1POPC   C3B 1319   3.556   2.342   4.639
    1POPC   C4B 1320   3.581   2.287   5.141
    1POPC   NC3 1321   1.126   1.145   3.023
    1POPC   PO4 1322   1.257   1.566   3.057
    1POPC   GL1 1323   1.416   1.306   3.396
    1POPC   GL2 1324   1.119   1.305   3.467
    1POPC   C1A 1325   1.544   1.232   3.814
    1POPC   D2A 1326   1.441   1.535   4.190
    1POPC   C3A 1327   1.482   1.370   4.619
    1POPC   C4A 1328   1.464   1.226   5.091
    1POPC   C1B 1329   1.081   1.325   3.832
    1POPC   C2B 1330   1.079   1.116   4.186
    1POPC   C3B 1331   1.042   1.038   4.648
    1POPC   C4B 1332   1.061   1.463   4.887
    1POPC   NC3 1333   3.707   4.707   2.896
    1POPC   PO4 1334   3.974   4.376   3.029
    1POPC   GL1 1335   3.831   4.671   3.372
    1POPC   GL2 1336   3.811   4.399   3.498
    1POPC   C1A 1337   3.846   4.837   3.793
    1POPC   D2A 1338   3.724   4.717   4.270
    1POPC   C3A 1339   3.724   4.781   4.741
    1POPC   C4A 1340   3.616   4.706   5.234
    1POPC   C1B 1341   4.117   4.388   3.709
    1POPC   C2B 1342   4.254   4.495   4.083
    1POPC   C3B 1343   4.114   4.483   4.535
    1POPC   C4B 1344   3.991   4.445   5.011
    1POPC   NC3 1345   2.084   4.402   2.679
    1POPC   PO4 1346   2.175   4.733   2.910
    1POPC   GL1 1347   2.113   4.709   3.364
    1POPC   GL2 1348   2.330   4.490   3.353
    1POPC   C1A 1349   1.966   4.744   3.794
    1POPC   D2A 1350   1.822   4.535   4.230
    1POPC   C3A 1351   2.005   4.784   4.558
    1POPC   C4A 1352   2.464   4.867   4.692
    1POPC   C1B 1353   2.389   4.479   3.721
    1POPC   C2B 1354   2.345   4.540   4.129
    1POPC   C3B 1355   2.333   4.379   4.576
    1POPC   C4B 1356   2.576   4.285   4.991
    1POPC   NC3 1357   1.138   0.255   2.986
    1POPC   PO4 1358   1.213   0.698   3.010
    1POPC   GL1 1359   1.195   0.517   3.417
    1POPC   GL2 1360   1.403   0.294   3.380
    1POPC   C1A 1361   1.230   0.558   3.853
    1POPC   D2A 1362   1.223   0.632   4.340
    1POPC   C3A 1363   1.179   0.259   4.606
    1POPC   C4A 1364   1.268   0.643   4.898
    1POPC   C1B 1365   1.485   0.120   3.708
    1POPC   C2B 1366   1.617   0.079   4.105
    1POPC   C3B 1367   1.683   0.181   4.574
    1POPC   C4B 1368   1.504   4.991   4.987
    1POPC   NC3 1369   1.064   1.992   3.051
    1POPC   PO4 1370   1.314   2.372   3.097
    1POPC   GL1 1371   1.362   2.079   3.428
    1POPC   GL2 1372   1.055   2.134   3.494
    1POPC   C1A 1373   1.543   2.132   3.820
    1POPC   D2A 1374   1.335   2.474   4.115
    1POPC   C3A 1375   1.308   2.360   4.565
    1POPC   C4A 1376   1.719   2.208   4.824
    1POPC   C1B 1377   0.913   1.933   3.772
    1POPC   C2B 1378   0.967   1.745   4.136
    1POPC   C3B 1379   1.140   1.847   4.569
    1POPC   C4B 1380   1.023   1.985   5.029
    1POPC   NC3 1381   2.751   1.527   2.632
    1POPC   PO4 1382   2.410   1.458   2.930
    1POPC   GL1 1383   2.225   1.316   3.341
    1POPC   GL2 1384   2.501   1.430   3.424
    1POPC   C1A 1385   2.071   1.293   3.771
    1POPC   D2A 1386   1.928   1.289   4.257
    1POPC   C3A 1387   2.130   1.080   4.630
    1POPC   C4A 1388   1.951   1.045   5.081
    1POPC   C1B 1389   2.482   1.534   3.783
    1POPC   C2B 1390   2.390   1.530   4.193
    1POPC   C3B 1391   2.327   1.540   4.668
    1POPC   C4B 1392   2.530   1.262   5.022
    1POPC   NC3 1393   4.873   0.719   2.718
    1POPC   PO4 1394   4.663   0.499   3.016
    1POPC   GL1 1395   4.737   0.304   3.409
    1POPC   GL2 1396   4.709   0.602   3.508
    1POPC   C1A 1397   4.585   0.216   3.805
    1POPC   D2A 1398   4.622   0.513   4.199
    1POPC   C3A 1399   4.587   0.364   4.628
    1POPC   C4A 1400   4.437   0.256   5.073
    1POPC   C1B 1401   4.894   0.677   3.823
    1POPC   C2B 1402   0.102   0.691   4.186
    1POPC   C3B 1403   4.973   0.706   4.659
    1POPC   C4B 1404   4.610   0.731   5.012
    1POPC   NC3 1405   2.889   4.482   2.746
    1POPC   PO4 1406   3.174   4.556   3.070
    1POPC   GL1 1407   3.027   4.622   3.495
    1POPC   GL2 1408   2.741   4.673   3.446
    1POPC   C1A 1409   3.108   4.639   3.936
    1POPC   D2A 1410   3.264   4.365   4.326
    1POPC   C3A 1411   3.253   4.790   4.509
    1POPC   C4A 1412   3.317   0.000   4.946
    1POPC   C1B 1413   2.654   4.853   3.767
    1POPC   C2B 1414   2.652   4.969   4.167
    1POPC   C3B 1415   2.790   4.592   4.420
    1POPC   C4B 1416   2.921   4.662   4.881
    1POPC   NC3 1417   4.059   3.970   2.827
    1POPC   PO4 1418   3.980   3.595   3.071
    1POPC   GL1 1419   3.769   3.680   3.441
    1POPC   GL2 1420   3.875   3.964   3.450
    1POPC   C1A 1421   3.739   3.595   3.870
    1POPC   D2A 1422   3.991   3.630   4.296
    1POPC   C3A 1423   3.593   3.679   4.522
    1POPC   C4A 1424   3.582   3.696   5.004
    1POPC   C1B 1425   3.824   4.068   3.812
    1POPC   C2B 1426   3.830   4.137   4.230
    1POPC   C3B 1427   3.936   4.025   4.695
    1POPC   C4B 1428   4.038   3.966   5.176
    1POPC   NC3 1429   3.902   3.170   2.943
    1POPC   PO4 1430   3.670   2.890   3.170
    1POPC   GL1 1431   3.823   2.968   3.519
    1POPC   GL2 1432   3.915   3.257   3.433
    1POPC   C1A 1433   3.518   2.908   3.820
    1POPC   D2A 1434   3.660   2.843   4.276
    1POPC   C3A 1435   3.431   2.987   4.630
    1POPC   C4A 1436   3.733   2.733   4.917
    1POPC   C1B 1437   4.091   3.313   3.749
    1POPC   C2B 1438   4.137   3.148   4.125
    1POPC   C3B 1439   4.149   2.812   4.470
    1POPC   C4B 1440   3.887   3.211   4.632
    1POPC   NC3 1441   0.320   4.595   2.755
    1POPC   PO4 1442   0.669   4.592   3.014
    1POPC   GL1 1443   0.479   4.460   3.401
    1POPC   GL2 1444   0.441   4.762   3.370
    1POPC   C1A 1445   0.305   4.537   3.799
    1POPC   D2A 1446   0.166   4.773   4.206
    1POPC   C3A 1447   0.386   4.580   4.546
    1POPC   C4A 1448   0.248   4.530   4.996
    1POPC   C1B 1449   0.611   4.886   3.669
    1POPC   C2B 1450   0.648   4.858   4.075
    1POPC   C3B 1451   0.649   0.017   4.525
    1POPC   C4B 1452   0.545   4.962   4.994
    1POPC   NC3 1453   1.423   2.784   2.926
    1POPC   PO4 1454   1.440   3.188   3.126
    1POPC   GL1 1455   1.261   3.134   3.485
    1POPC   GL2 1456   1.256   2.818   3.393
    1POPC   C1A 1457   1.403   3.204   3.899
    1POPC   D2A 1458   1.406   2.951   4.326
    1POPC   C3A 1459   1.476   3.230   4.694
    1POPC   C4A 1460   1.522   3.183   5.186
    1POPC   C1B 1461   1.113   2.701   3.708
    1POPC   C2B 1462   0.913   2.763   4.063
    1POPC   C3B 1463   0.885   2.682   4.525
    1POPC   C4B 1464   1.216   2.833   4.855
    1POPC   NC3 1465   0.097   3.370   2.660
    1POPC   PO4 1466   0.111   3.621   3.050
    1POPC   GL1 1467   0.350   3.687   3.414
    1POPC   GL2 1468   0.423   3.982   3.417
    1POPC   C1A 1469   0.366   3.638   3.852
    1POPC   D2A 1470   0.702   3.552   4.204
    1POPC   C3A 1471   0.378   3.703   4.501
    1POPC   C4A 1472   0.150   3.883   4.912
    1POPC   C1B 1473   0.510   4.092   3.781
    1POPC   C2B 1474   0.534   4.140   4.211
    1POPC   C3B 1475   0.554   4.124   4.717
    1POPC   C4B 1476   0.483   4.123   5.233
    1W        W 1477   2.388   4.819   8.375
    1W        W 1478   4.864   4.004   9.193
    1W        W 1479   3.903   3.923   0.698
    1W        W 1480   1.494   1.936   0.787
    1W        W 1481   0.811   2.240   1.743
    1W        W 1482   1.115   4.040   1.122
    1W        W 1483   4.043   2.470   0.716
    1W        W 1484   3.304   2.563   9.239
    1W        W 1485   3.871   2.013   2.099
    1W        W 1486   3.346   4.400   0.092
    1W        W 1487   2.959   4.858   9.287
    1W        W 1488   2.023   1.705   0.836
    1W        W 1489   1.294   2.421   1.393
    1W        W 1490   1.052   2.039   2.156
    1W        W 1491   0.590   4.302   0.347
    1W        W 1492   3.147   2.331   7.447
    1W        W 1493   2.514   2.978   8.436
    1W        W 1494   4.706   2.746   7.950
    1W        W 1495   1.426   4.853   0.856
    1W        W 1496   0.227   2.529   8.496
    1W        W 1497   2.734   3.442   8.368
    1W        W 1498   3.182   3.147   8.388
    1W        W 1499   2.554   4.237   9.283
    1W        W 1500   2.485   3.520   9.301
    1W        W 1501   2.511   2.454   7.122
    1W        W 1502   1.601   0.053   1.309
    1W        W 1503   1.986   4.566   2.187
    1W        W 1504   2.575   3.930   8.208
    1W        W 1505   4.347   2.371   7.908
    1W        W 1506   1.290   1.200   1.168
    1W        W 1507   2.035   0.074   0.795
    1W        W 1508   2.997   3.329   9.243
    1W        W 1509   4.164   2.581   2.037
    1W        W 1510   1.220   2.488   0.888
    1W        W 1511   3.980   1.899   7.698
    1W        W 1512   0.750   4.215   9.825
    1W        W 1513   4.390   3.155   8.332
    1W        W 1514   4.796   2.077   9.696
    1W        W 1515   2.994   2.917   9.578
    1W        W 1516   0.336   4.670   9.758
    1W        W 1517   2.988   2.552   8.833
    1W        W 1518   4.035   2.715   8.433
    1W        W 1519   0.187   2.094   0.101
    1W        W 1520   2.945   4.240   8.845
    1W        W 1521   0.200   2.384   9.665
    1W        W 1522   2.725   2.531   9.835
    1W        W 1523   3.529   2.092   9.229
    1W        W 1524   3.988   2.032   9.769
    1W        W 1525   2.176   1.112   1.625
    1W        W 1526   1.967   3.016   8.792
    1W        W 1527   4.222   2.486   9.766
    1W        W 1528   1.020   3.092   2.085
    1W        W 1529   4.825   0.857   0.365
    1W        W 1530   1.621   0.893   0.814
    1W        W 1531   1.796   0.161   9.387
    1W        W 1532   3.283   1.952   8.764
    1W        W 1533   1.423   3.427   2.276
    1W        W 1534   2.687   2.102   8.660
    1W        W 1535   2.568   4.236   0.169
    1W        W 1536   1.097   0.074   1.179
    1W        W 1537   1.968   3.120   7.851
    1W        W 1538   0.809   4.305   1.688
    1W        W 1539   3.002   1.873   8.329
    1W        W 1540   1.912   1.513   1.303
    1W        W 1541   0.104   4.339   8.374
    1W        W 1542   3.533   2.699   8.387
    1W        W 1543   2.170   3.774   9.668
    1W        W 1544   4.707   3.304   7.939
    1W        W 1545   0.180   2.893   9.777
    1W        W 1546   3.855   2.851   9.760
    1W        W 1547   4.740   2.938   9.319
    1W        W 1548   2.484   0.976   1.254
    1W        W 1549   2.955   2.449   8.321
    1W        W 1550   1.819   0.722   9.789
    1W        W 1551   1.033   2.965   0.304
    1W        W 1552   1.117   3.842   2.080
    1W        W 1553   2.320   2.555   8.213
    1W        W 1554   4.330   2.996   9.644
    1W        W 1555   1.080   1.942   1.435
    1W        W 1556   2.249   1.388   2.037
    1W        W 1557   4.197   3.385   0.928
    1W        W 1558   2.783   2.536   9.298
    1W        W 1559   1.578   1.622   0.333
    1W        W 1560   0.731   3.963   0.708
    1W        W 1561   1.507   2.079   1.710
    1W        W 1562   1.699   0.295   8.897
    1W        W 1563   2.709   1.207   0.288
    1W        W 1564   1.749   0.851   2.052
    1W        W 1565   1.038   3.463   1.777
    1W        W 1566   2.722   2.563   7.659
    1W        W 1567   1.160   1.099   0.676
    1W        W 1568   2.369   3.488   7.980
    1W        W 1569   2.108   0.639   0.801
    1W        W 1570   2.842   3.833   9.150
    1W        W 1571   2.596   3.816   8.703
    1W        W 1572   1.311   1.087   2.008
    1W        W 1573   1.603   0.362   0.864
    1W        W 1574   1.605   2.090   2.217
    1W        W 1575   3.068   3.547   8.759
    1W        W 1576   0.086   2.327   7.973
    1W        W 1577   4.776   3.194   9.800
    1W        W 1578   3.973   2.577   8.914
    1W        W 1579   0.431   4.754   2.186
    1W        W 1580   0.019   3.743   7.926
    1W        W 1581   2.680   3.851   9.652
    1W        W 1582   1.592   1.418   0.814
    1W        W 1583   2.605   3.006   9.228
    1W        W 1584   2.854   3.825   7.803
    1W        W 1585   2.067   4.821   0.228
    1W        W 1586   1.628   1.120   1.591
    1W        W 1587   4.084   2.939   7.994
    1W        W 1588   1.195   3.225   2.682
    1W        W 1589   1.202   3.212   0.754
    1W        W 1590   3.533   2.390   8.783
    1W        W 1591   4.002   3.806   1.212
    1W        W 1592   2.073   3.232   8.344
    1W        W 1593   4.786   2.428   9.306
    1W        W 1594   1.563   1.597   1.830
    1W        W 1595   1.344   4.278   2.203
    1W        W 1596   0.217   1.979   2.119
    1W        W 1597   2.765   4.404   8.374
    1W        W 1598   3.451   4.888   0.236
    1W        W 1599   1.639   0.077   0.417
    1W        W 1600   2.881   2.136   7.908
    1W        W 1601   4.859   1.871   7.796
    1W        W 1602   0.139   3.900   2.227
    1W        W 1603   4.765   2.379   8.361
    1W        W 1604   4.935   2.201   8.835
    1W        W 1605   1.171   4.761   0.425
    1W        W 1606   0.787   2.812   7.494
    1W        W 1607   3.102   4.790   9.811
    1W        W 1608   2.967   2.100   0.004
    1W        W 1609   0.226   4.038   0.706
    1W        W 1610   0.241   4.303   9.401
    1W        W 1611   0.974   4.421   0.773
    1W        W 1612   0.184   3.084   7.983
    1W        W 1613   4.739   2.321   7.579
    1W        W 1614   2.581   4.359   7.882
    1W        W 1615   1.261   3.861   1.582
    1W        W 1616   2.473   3.136   9.746
    1W        W 1617   4.803   3.213   8.831
    1W        W 1618   2.239   0.796   1.996
    1W        W 1619   3.452   2.170   8.311
    1W        W 1620   1.806   2.083   0.380
    1W        W 1621   2.935   3.268   7.620
    1W        W 1622   3.816   2.480   9.408
    1W        W 1623   1.087   1.983   9.768
    1W        W 1624   3.312   2.490   7.931
    1W        W 1625   2.394   3.343   8.815
    1W        W 1626   1.924   3.753   7.925
    1W        W 1627   4.587   1.974   9.204
    1W        W 1628   3.974   1.961   8.205
    1W        W 1629   1.222   0.056   1.760
    1W        W 1630   1.583   0.724   7.765
    1W        W 1631   3.500   4.272   1.830
    1W        W 1632   0.638   4.214   1.179
    1W        W 1633   3.366   2.896   8.844
    1W        W 1634   0.696   4.724   1.092
    1W        W 1635   2.009   4.783   9.698
    1W        W 1636   1.061   1.974   8.718
    1W        W 1637   1.451   1.673   1.259
    1W        W 1638   1.807   0.204   9.916
    1W        W 1639   3.427   3.057   9.325
    1W        W 1640   2.254   4.329   8.279
    1W        W 1641   3.769   4.340   2.296
    1W        W 1642   2.896   4.312   9.772
    1W        W 1643   3.096   4.939   7.860
    1W        W 1644   2.109   1.603   0.333
    1W        W 1645   1.125   2.914   1.221
    1W        W 1646   2.447   2.950   7.918
    1W        W 1647   3.499   4.758   2.120
    1W        W 1648   1.799   2.041   1.225
    1W        W 1649   0.129   2.034   9.284
    1W        W 1650   0.611   4.256   2.190
    1W        W 1651   1.542   0.670   1.286
    1W        W 1652   2.951   2.880   8.000
    1W        W 1653   2.868   3.071   8.793
    1W        W 1654   0.986   2.543   2.129
    1W        W 1655   3.455   2.992   7.987
    1W        W 1656   4.882   3.910   8.577
    1W        W 1657   0.777   4.808   1.660
    1W        W 1658   0.212   3.117   9.225
    1W        W 1659   1.472   0.301   2.196
    1W        W 1660   0.012   4.829   9.312
    1W        W 1661   1.625   0.359   1.728
    1W        W 1662   0.050   4.697   8.803
    1W        W 1663   0.692   2.055   0.483
    1W        W 1664   1.205   2.000   9.237
    1W        W 1665   2.791   4.771   8.778
    1W        W 1666   1.621   0.660   2.617
    1W        W 1667   1.083   1.523   2.128
    1W        W 1668   4.862   2.706   8.858
    1W        W 1669   3.420   4.302   0.632
    1W        W 1670   1.106   1.595   0.730
    1W        W 1671   4.452   2.382   8.866
    1W        W 1672   2.559   4.938   7.901
    1W        W 1673   1.942   0.699   1.591
    1W        W 1674   3.799   4.262   0.280
    1W        W 1675   0.665   4.774   0.544
    1W        W 1676   3.567   3.855   1.523
    1W        W 1677   3.439   1.864   7.556
    1W        W 1678   3.928   3.754   0.206
    1W        W 1679   2.004   0.340   2.162
    1W        W 1680   0.813   2.475   1.224
    1W        W 1681   1.570   1.111   0.349
    1W        W 1682   2.496   2.965   7.409
    1W        W 1683   3.888   4.429   0.819
    1W        W 1684   3.423   3.829   0.893
    1W        W 1685   2.453   2.497   8.888
    1W        W 1686   0.758   4.300   9.293
    1W        W 1687   2.062   3.499   7.508
    1W        W 1688   1.829   0.669   9.232
    1W        W 1689   1.844   0.731   8.226
    1W        W 1690   1.971   1.027   1.178
    1W        W 1691   3.603   4.788   1.260
    1W        W 1692   4.363   2.914   8.823
    1W        W 1693   0.712   3.686   1.165
    1W        W 1694   1.168   3.482   0.277
    1W        W 1695   3.204   4.580   8.180
    1W        W 1696   1.192   2.055   7.886
    1W        W 1697   4.826   0.755   2.183
    1W        W 1698   4.624   0.773   1.667
    1W        W 1699   0.777   3.834   0.199
    1W        W 1700   3.925   2.965   9.242
    1W        W 1701   3.420   3.858   0.356
    1W        W 1702   2.314   3.954   7.685
    1W        W 1703   2.129   0.325   0.358
    1W        W 1704   2.350   4.254   1.898
    1W        W 1705   3.991   2.070   8.776
    1W        W 1706   1.203   3.786   0.684
    1W        W 1707   1.693   0.598   0.392
    1W        W 1708   2.048   1.193   0.693
    1W        W 1709   3.997   4.363   1.820
    1W        W 1710   3.932   2.569   0.205
    1W        W 1711   4.795   0.728   1.145
    1W        W 1712   3.842   2.442   8.041
    1W        W 1713   0.200   4.076   1.736
    1W        W 1714   2.704   1.710   0.235
    1W        W 1715   1.995   0.376   1.218
    1W        W 1716   0.188   3.840   1.236
    1W        W 1717   0.221   4.201   8.880
    1W        W 1718   2.959   1.125   8.430
    1W        W 1719   3.864   3.916   2.028
    1W        W 1720   4.882   2.935   8.392
    1W        W 1721   0.256   2.549   7.486
    1W        W 1722   0.987   2.025   0.949
    1W        W 1723   0.253   2.586   9.178
    1W        W 1724   1.231   3.408   1.314
    1W        W 1725   1.955   3.002   9.778
    1W        W 1726   3.820   4.272   1.346
    1W        W 1727   2.110   3.824   8.395
    1W        W 1728   3.399   3.137   9.843
    1W        W 1729   4.276   2.442   7.376
    1W        W 1730   0.258   4.163   9.945
    1W        W 1731   1.140   1.442   1.599
    1W        W 1732   2.553   4.938   7.372
    1W        W 1733   2.902   4.958   8.315
    1W        W 1734   2.176   0.257   1.681
    1W        W 1735   4.993   3.450   8.354
    1W        W 1736   1.880   3.520   8.731
    1W        W 1737   3.409   2.620   9.735
    1W        W 1738   3.162   3.725   8.243
    1W        W 1739   4.819   3.456   9.285
    1W        W 1740   1.591   4.268   2.705
    1W        W 1741   2.934   2.077   9.128
    1W        W 1742   3.859   3.080   8.715
    1W        W 1743   1.172   1.924   0.315
    1W        W 1744   2.553   1.228   0.824
    1W        W 1745   2.016   3.691   9.186
    1W        W 1746   2.443   4.318   8.778
    1W        W 1747   1.537   4.716   2.020
    1W        W 1748   4.280   2.283   8.402
    1W        W 1749   2.950   3.416   9.796
    1W        W 1750   2.879   1.621   8.810
    1W        W 1751   3.477   2.118   9.771
    1W        W 1752   1.118   1.409   0.236
    1W        W 1753   2.873   1.202   9.770
    1W        W 1754   2.108   3.173   9.292
    1W        W 1755   3.094   1.005   7.955
    1W        W 1756   1.319   2.753   1.816
    1W        W 1757   1.410   4.341   1.689
    1W        W 1758   3.378   4.461   2.599
    1W        W 1759   4.727   2.655   9.784
    1W        W 1760   1.123   4.191   0.331
    1W        W 1761   3.594   4.854   0.739
    1W        W 1762   1.912   4.474   1.684
    1W        W 1763   4.095   2.060   9.268
    1W        W 1764   3.937   4.740   0.361
    1W        W 1765   0.696   3.816   1.669
    1W        W 1766   1.632   0.297   8.085
    1W        W 1767   2.885   1.611   9.412
    1W        W 1768   1.522   1.605   2.339
    1W        W 1769   2.561   4.832   9.701
    1W        W 1770   4.319   2.640   9.285
    1W        W 1771   1.169   4.569   1.233
    1W        W 1772   0.047   0.024   8.292
    1W        W 1773   0.279   3.025   8.719
    1W        W 1774   2.443   4.788   9.187
    1ION     NA 1775   2.586   0.896   1.740
    1ION     NA 1776   2.498   2.101   9.082
    1ION     NA 1777   1.922   4.180   7.833
    1ION     NA 1778   0.814   2.805   0.954
    1ION     CL 1779   1.021   2.830   0.741
    1ION     CL 1780   1.625   0.428   8.496
    1ION     CL 1781   1.805   1.276   1.947
    1ION     CL 1782   4.129   4.049   1.554
    1ION     NA 1783   4.386   1.953   7.874
    1ION     NA 1784   4.604   2.506   2.038
    1ION     NA 1785   3.979   3.812   1.644
    1ION     NA 1786   2.563   1.560   1.780
    1ION     NA 1787   2.345   1.396   1.321
    1ION     NA 1788   4.843   4.440   9.245
    1ION     NA 1789   4.341   3.086   9.222
    1ION     NA 1790   2.642   4.765   6.992
    1ION     NA 1791   1.419   3.024   2.148
    1ION     NA 1792   0.149   1.050   2.124
    1ION     NA 1793   4.178   3.411   8.028
    1ION     NA 1794   2.386   3.895   9.063
    1ION     NA 1795   2.786   1.276   7.932
    1ION     NA 1796   4.245   1.668   9.046
    1ION     NA 1797   0.904   3.302   8.024
    1ION     NA 1798   2.436   4.641   0.072
    1ION     NA 1799   3.520   4.872   8.020
    1ION     NA 1800   3.202   3.576   7.763
    1ION     NA 1801   1.914   2.796   8.425
    1ION     NA 1802   1.041   1.602   1.162
    1ION     NA 1803   0.587   1.852   8.419
    1ION     NA 1804   1.508   3.606   1.896
    1ION     NA 1805   4.368   4.201   1.684
    1ION     NA 1806   1.403   3.853   0.309
    1ION     NA 1807   1.578   4.895   9.641
    1ION     NA 1808   0.168   3.439   8.744
    1ION     NA 1809   1.077   3.703   7.798
    1ION     NA 1810   2.195   0.891   9.636
    1ION     NA 1811   1.864   1.375   2.224
    1ION     NA 1812   1.808   0.612   8.628
    1ION     NA 1813   1.331   1.693   9.967
    1ION     NA 1814   3.487   1.572   7.889
    1ION     NA 1815   2.414   0.484   1.263
    1ION     NA 1816   0.314   4.989   7.959
    1ION     NA 1817   2.590   1.803   8.209
    1ION     NA 1818   1.636   3.922   8.318
    1ION     NA 1819   3.771   3.059   8.284
    1ION     NA 1820   2.627   0.572   8.424
    1ION     NA 1821   3.841   2.294   8.445
    1ION     NA 1822   3.102   3.612   0.183
    1ION     NA 1823   1.721   4.259   2.002
    1ION     NA 1824   3.792   2.415   9.833
    1ION     NA 1825   2.768   0.293   8.034
    1ION     NA 1826   0.756   4.983   2.051
    1ION     NA 1827   3.347   4.896   8.475
    1ION     NA 1828   2.746   4.375   1.736
    1ION     NA 1829   2.764   2.298   0.346
    1ION     NA 1830   2.090   1.626   2.780
    1ION     NA 1831   1.211   3.112   1.631
    1ION     NA 1832   4.860   4.065   8.153
    1ION     NA 1833   3.038   2.899   9.147
    1ION     NA 1834   0.637   1.947   2.009
    1ION     NA 1835   4.944   1.983   8.201
    1ION     NA 1836   0.985   4.862   0.810
    1ION     NA 1837   1.193   1.808   1.841
    1ION     NA 1838   1.701   3.267   8.147
    1ION     NA 1839   1.306   0.341   1.430
    1ION     NA 1840   2.183   3.121   0.119
    1ION     NA 1841   3.187   4.123   2.087
    1ION     NA 1842   4.898   2.912   0.126
    1ION     NA 1843   4.049   3.543   0.565
    1ION     NA 1844   1.941   1.439   1.736
    1ION     NA 1845   0.366   3.939   0.305
    1ION     NA 1846   4.898   4.091   1.434
    1ION     NA 1847   3.052   1.406   0.114
    1ION     NA 1848   1.379   0.663   1.954
    1ION     NA 1849   2.472   2.277   7.873
    1ION     NA 1850   1.284   2.803   0.603
    1ION     NA 1851   1.304   0.775   0.437
    1ION     NA 1852   3.726   3.838   8.482
    1ION     NA 1853   0.219   1.940   9.692
    1ION     NA 1854   3.715   4.640   9.996
   5.00000   5.00000  10.00000
