INSANE! Membrane UpperLeaflet>GIB0:POPC=50.0:50.0 LowerLeaflet>GIB0:POPC=50.0:50.0
 1854
    1GIB0   PO4    1   4.650   0.284   7.250
    1GIB0    A0    2   4.626   0.482   7.550
    1GIB0    B0    3   4.552   0.411   7.850
    1GIB0    C0    4   4.883   0.407   7.700
    1GIB0   VS0    5   4.804   0.332   7.700
    1GIB0    A1    6   4.663   0.340   8.150
    1GIB0    B1    7   4.632   0.344   8.450
    1GIB0    C2    8   4.866   0.276   8.300
    1GIB0    D1    9   4.984   0.463   8.300
    1GIB0   VS1   10   4.850   0.291   8.300
    1GIB0    A2   11   4.688   0.321   8.750
    1GIB0    B2   12   4.635   0.360   9.050
    1GIB0    C2   13   4.907   0.402   8.900
    1GIB0   VS2   14   4.869   0.297   8.900
    1GIB0    A3   15   4.652   0.351   9.350
    1GIB0    B3   16   4.690   0.331   9.650
    1GIB0    C3   17   4.901   0.371   9.500
    1GIB0   VS3   18   4.818   0.313   9.500
    1GIB0   NOH   19   4.687   0.328   6.950
    1GIB0   GLA   20   4.357   0.249   6.650
    1GIB0   GLB   21   4.920   0.406   6.650
    1GIB0   C1A   22   4.407   0.346   6.350
    1GIB0   C2A   23   4.349   0.322   6.050
    1GIB0   C3A   24   4.404   0.252   5.750
    1GIB0   C1B   25   4.913   0.352   6.350
    1GIB0   C2B   26   4.950   0.407   6.050
    1GIB0   C3B   27   4.969   0.342   5.750
    1GIB0   C4B   28   4.920   0.399   5.450
    1GIB0   C5B   29   4.937   0.367   5.150
    2GIB0   PO4   30   0.525   0.346   7.250
    2GIB0    A0   31   0.428   0.472   7.550
    2GIB0    B0   32   0.444   0.406   7.850
    2GIB0    C0   33   0.767   0.342   7.700
    2GIB0   VS0   34   0.643   0.287   7.700
    2GIB0    A1   35   0.445   0.325   8.150
    2GIB0    B1   36   0.494   0.373   8.450
    2GIB0    C2   37   0.628   0.293   8.300
    2GIB0    D1   38   0.913   0.452   8.300
    2GIB0   VS1   39   0.712   0.296   8.300
    2GIB0    A2   40   0.457   0.301   8.750
    2GIB0    B2   41   0.510   0.297   9.050
    2GIB0    C2   42   0.723   0.353   8.900
    2GIB0   VS2   43   0.656   0.291   8.900
    2GIB0    A3   44   0.493   0.320   9.350
    2GIB0    B3   45   0.455   0.357   9.650
    2GIB0    C3   46   0.764   0.382   9.500
    2GIB0   VS3   47   0.636   0.257   9.500
    2GIB0   NOH   48   0.489   0.325   6.950
    2GIB0   GLA   49   0.209   0.291   6.650
    2GIB0   GLB   50   0.724   0.352   6.650
    2GIB0   C1A   51   0.167   0.329   6.350
    2GIB0   C2A   52   0.188   0.318   6.050
    2GIB0   C3A   53   0.259   0.303   5.750
    2GIB0   C1B   54   0.791   0.387   6.350
    2GIB0   C2B   55   0.734   0.379   6.050
    2GIB0   C3B   56   0.729   0.369   5.750
    2GIB0   C4B   57   0.759   0.397   5.450
    2GIB0   C5B   58   0.724   0.378   5.150
    3GIB0   PO4   59   0.632   1.342   7.250
    3GIB0    A0   60   0.527   1.291   7.550
    3GIB0    B0   61   0.489   1.240   7.850
    3GIB0    C0   62   0.592   1.609   7.700
    3GIB0   VS0   63   0.606   1.509   7.700
    3GIB0    A1   64   0.645   1.310   8.150
    3GIB0    B1   65   0.587   1.339   8.450
    3GIB0    C2   66   0.591   1.495   8.300
    3GIB0    D1   67   0.488   1.712   8.300
    3GIB0   VS1   68   0.596   1.518   8.300
    3GIB0    A2   69   0.568   1.294   8.750
    3GIB0    B2   70   0.612   1.268   9.050
    3GIB0    C2   71   0.579   1.642   8.900
    3GIB0   VS2   72   0.625   1.477   8.900
    3GIB0    A3   73   0.616   1.352   9.350
    3GIB0    B3   74   0.584   1.325   9.650
    3GIB0    C3   75   0.597   1.561   9.500
    3GIB0   VS3   76   0.685   1.496   9.500
    3GIB0   NOH   77   0.603   1.318   6.950
    3GIB0   GLA   78   0.595   1.018   6.650
    3GIB0   GLB   79   0.534   1.587   6.650
    3GIB0   C1A   80   0.617   1.016   6.350
    3GIB0   C2A   81   0.607   1.012   6.050
    3GIB0   C3A   82   0.635   1.071   5.750
    3GIB0   C1B   83   0.556   1.547   6.350
    3GIB0   C2B   84   0.541   1.555   6.050
    3GIB0   C3B   85   0.606   1.581   5.750
    3GIB0   C4B   86   0.563   1.631   5.450
    3GIB0   C5B   87   0.526   1.562   5.150
    4GIB0   PO4   88   3.776   1.120   7.250
    4GIB0    A0   89   3.762   1.313   7.550
    4GIB0    B0   90   3.774   1.321   7.850
    4GIB0    C0   91   4.072   1.155   7.700
    4GIB0   VS0   92   3.984   1.049   7.700
    4GIB0    A1   93   3.748   1.131   8.150
    4GIB0    B1   94   3.739   1.174   8.450
    4GIB0    C2   95   3.911   1.069   8.300
    4GIB0    D1   96   4.143   1.217   8.300
    4GIB0   VS1   97   3.900   1.058   8.300
    4GIB0    A2   98   3.806   1.168   8.750
    4GIB0    B2   99   3.783   1.203   9.050
    4GIB0    C2  100   4.034   1.140   8.900
    4GIB0   VS2  101   3.919   1.112   8.900
    4GIB0    A3  102   3.772   1.202   9.350
    4GIB0    B3  103   3.826   1.156   9.650
    4GIB0    C3  104   4.081   1.124   9.500
    4GIB0   VS3  105   3.976   1.066   9.500
    4GIB0   NOH  106   3.748   1.196   6.950
    4GIB0   GLA  107   3.512   1.215   6.650
    4GIB0   GLB  108   4.085   1.159   6.650
    4GIB0   C1A  109   3.547   1.222   6.350
    4GIB0   C2A  110   3.481   1.167   6.050
    4GIB0   C3A  111   3.526   1.143   5.750
    4GIB0   C1B  112   4.096   1.118   6.350
    4GIB0   C2B  113   4.102   1.102   6.050
    4GIB0   C3B  114   4.087   1.152   5.750
    4GIB0   C4B  115   4.048   1.161   5.450
    4GIB0   C5B  116   4.071   1.120   5.150
    5GIB0   PO4  117   2.270   0.400   7.250
    5GIB0    A0  118   2.124   0.373   7.550
    5GIB0    B0  119   2.152   0.432   7.850
    5GIB0    C0  120   2.475   0.597   7.700
    5GIB0   VS0  121   2.393   0.444   7.700
    5GIB0    A1  122   2.229   0.396   8.150
    5GIB0    B1  123   2.205   0.392   8.450
    5GIB0    C2  124   2.372   0.468   8.300
    5GIB0    D1  125   2.514   0.642   8.300
    5GIB0   VS1  126   2.406   0.441   8.300
    5GIB0    A2  127   2.243   0.351   8.750
    5GIB0    B2  128   2.225   0.385   9.050
    5GIB0    C2  129   2.380   0.570   8.900
    5GIB0   VS2  130   2.400   0.445   8.900
    5GIB0    A3  131   2.231   0.418   9.350
    5GIB0    B3  132   2.216   0.394   9.650
    5GIB0    C3  133   2.392   0.621   9.500
    5GIB0   VS3  134   2.351   0.482   9.500
    5GIB0   NOH  135   2.235   0.330   6.950
    5GIB0   GLA  136   2.070   0.149   6.650
    5GIB0   GLB  137   2.428   0.533   6.650
    5GIB0   C1A  138   2.001   0.127   6.350
    5GIB0   C2A  139   2.048   0.163   6.050
    5GIB0   C3A  140   2.016   0.179   5.750
    5GIB0   C1B  141   2.396   0.536   6.350
    5GIB0   C2B  142   2.464   0.525   6.050
    5GIB0   C3B  143   2.448   0.600   5.750
    5GIB0   C4B  144   2.415   0.523   5.450
    5GIB0   C5B  145   2.459   0.607   5.150
    6GIB0   PO4  146   3.700   3.713   7.250
    6GIB0    A0  147   3.772   3.788   7.550
    6GIB0    B0  148   3.731   3.842   7.850
    6GIB0    C0  149   3.953   3.576   7.700
    6GIB0   VS0  150   3.905   3.522   7.700
    6GIB0    A1  151   3.749   3.660   8.150
    6GIB0    B1  152   3.751   3.701   8.450
    6GIB0    C2  153   3.855   3.506   8.300
    6GIB0    D1  154   4.109   3.545   8.300
    6GIB0   VS1  155   3.881   3.576   8.300
    6GIB0    A2  156   3.761   3.629   8.750
    6GIB0    B2  157   3.778   3.713   9.050
    6GIB0    C2  158   4.006   3.577   8.900
    6GIB0   VS2  159   3.906   3.597   8.900
    6GIB0    A3  160   3.688   3.664   9.350
    6GIB0    B3  161   3.755   3.631   9.650
    6GIB0    C3  162   4.013   3.517   9.500
    6GIB0   VS3  163   3.844   3.507   9.500
    6GIB0   NOH  164   3.724   3.658   6.950
    6GIB0   GLA  165   3.532   3.833   6.650
    6GIB0   GLB  166   3.964   3.541   6.650
    6GIB0   C1A  167   3.520   3.780   6.350
    6GIB0   C2A  168   3.510   3.786   6.050
    6GIB0   C3A  169   3.511   3.808   5.750
    6GIB0   C1B  170   4.019   3.505   6.350
    6GIB0   C2B  171   3.939   3.498   6.050
    6GIB0   C3B  172   3.968   3.542   5.750
    6GIB0   C4B  173   3.988   3.525   5.450
    6GIB0   C5B  174   3.956   3.512   5.150
    7GIB0   PO4  175   3.967   4.534   7.250
    7GIB0    A0  176   3.816   4.605   7.550
    7GIB0    B0  177   3.753   4.575   7.850
    7GIB0    C0  178   4.071   4.850   7.700
    7GIB0   VS0  179   4.097   4.729   7.700
    7GIB0    A1  180   3.965   4.614   8.150
    7GIB0    B1  181   3.962   4.621   8.450
    7GIB0    C2  182   4.010   4.740   8.300
    7GIB0    D1  183   4.078   4.959   8.300
    7GIB0   VS1  184   4.078   4.668   8.300
    7GIB0    A2  185   3.884   4.619   8.750
    7GIB0    B2  186   3.932   4.542   9.050
    7GIB0    C2  187   4.018   4.858   8.900
    7GIB0   VS2  188   4.067   4.741   8.900
    7GIB0    A3  189   3.881   4.530   9.350
    7GIB0    B3  190   3.943   4.623   9.650
    7GIB0    C3  191   4.014   4.806   9.500
    7GIB0   VS3  192   4.076   4.730   9.500
    7GIB0   NOH  193   3.887   4.550   6.950
    7GIB0   GLA  194   3.770   4.292   6.650
    7GIB0   GLB  195   4.049   4.805   6.650
    7GIB0   C1A  196   3.790   4.361   6.350
    7GIB0   C2A  197   3.845   4.321   6.050
    7GIB0   C3A  198   3.851   4.284   5.750
    7GIB0   C1B  199   4.057   4.830   6.350
    7GIB0   C2B  200   4.029   4.818   6.050
    7GIB0   C3B  201   4.064   4.819   5.750
    7GIB0   C4B  202   4.029   4.876   5.450
    7GIB0   C5B  203   4.003   4.852   5.150
    8GIB0   PO4  204   1.257   1.385   7.250
    8GIB0    A0  205   1.370   1.367   7.550
    8GIB0    B0  206   1.292   1.324   7.850
    8GIB0    C0  207   0.946   1.280   7.700
    8GIB0   VS0  208   1.027   1.356   7.700
    8GIB0    A1  209   1.211   1.461   8.150
    8GIB0    B1  210   1.260   1.379   8.450
    8GIB0    C2  211   1.054   1.333   8.300
    8GIB0    D1  212   0.899   1.194   8.300
    8GIB0   VS1  213   1.056   1.347   8.300
    8GIB0    A2  214   1.209   1.400   8.750
    8GIB0    B2  215   1.235   1.395   9.050
    8GIB0    C2  216   0.979   1.311   8.900
    8GIB0   VS2  217   1.046   1.397   8.900
    8GIB0    A3  218   1.230   1.371   9.350
    8GIB0    B3  219   1.183   1.463   9.650
    8GIB0    C3  220   1.038   1.285   9.500
    8GIB0   VS3  221   1.076   1.363   9.500
    8GIB0   NOH  222   1.241   1.411   6.950
    8GIB0   GLA  223   1.420   1.552   6.650
    8GIB0   GLB  224   1.035   1.235   6.650
    8GIB0   C1A  225   1.479   1.601   6.350
    8GIB0   C2A  226   1.427   1.598   6.050
    8GIB0   C3A  227   1.424   1.571   5.750
    8GIB0   C1B  228   0.993   1.223   6.350
    8GIB0   C2B  229   1.032   1.218   6.050
    8GIB0   C3B  230   1.008   1.271   5.750
    8GIB0   C4B  231   0.973   1.280   5.450
    8GIB0   C5B  232   1.030   1.239   5.150
    9GIB0   PO4  233   1.375   4.509   7.250
    9GIB0    A0  234   1.294   4.555   7.550
    9GIB0    B0  235   1.295   4.558   7.850
    9GIB0    C0  236   1.633   4.593   7.700
    9GIB0   VS0  237   1.463   4.460   7.700
    9GIB0    A1  238   1.374   4.466   8.150
    9GIB0    B1  239   1.373   4.542   8.450
    9GIB0    C2  240   1.554   4.512   8.300
    9GIB0    D1  241   1.728   4.602   8.300
    9GIB0   VS1  242   1.512   4.453   8.300
    9GIB0    A2  243   1.293   4.462   8.750
    9GIB0    B2  244   1.374   4.506   9.050
    9GIB0    C2  245   1.647   4.522   8.900
    9GIB0   VS2  246   1.479   4.504   8.900
    9GIB0    A3  247   1.363   4.545   9.350
    9GIB0    B3  248   1.332   4.508   9.650
    9GIB0    C3  249   1.599   4.519   9.500
    9GIB0   VS3  250   1.473   4.486   9.500
    9GIB0   NOH  251   1.355   4.464   6.950
    9GIB0   GLA  252   1.025   4.423   6.650
    9GIB0   GLB  253   1.603   4.549   6.650
    9GIB0   C1A  254   1.081   4.460   6.350
    9GIB0   C2A  255   1.092   4.397   6.050
    9GIB0   C3A  256   1.072   4.474   5.750
    9GIB0   C1B  257   1.651   4.559   6.350
    9GIB0   C2B  258   1.616   4.542   6.050
    9GIB0   C3B  259   1.588   4.572   5.750
    9GIB0   C4B  260   1.619   4.597   5.450
    9GIB0   C5B  261   1.587   4.514   5.150
   10GIB0   PO4  262   2.256   1.301   7.250
   10GIB0    A0  263   2.151   1.237   7.550
   10GIB0    B0  264   2.130   1.243   7.850
   10GIB0    C0  265   2.219   1.581   7.700
   10GIB0   VS0  266   2.296   1.493   7.700
   10GIB0    A1  267   2.239   1.350   8.150
   10GIB0    B1  268   2.283   1.295   8.450
   10GIB0    C2  269   2.340   1.429   8.300
   10GIB0    D1  270   2.222   1.737   8.300
   10GIB0   VS1  271   2.300   1.459   8.300
   10GIB0    A2  272   2.278   1.280   8.750
   10GIB0    B2  273   2.259   1.316   9.050
   10GIB0    C2  274   2.299   1.603   8.900
   10GIB0   VS2  275   2.354   1.456   8.900
   10GIB0    A3  276   2.254   1.296   9.350
   10GIB0    B3  277   2.238   1.283   9.650
   10GIB0    C3  278   2.234   1.555   9.500
   10GIB0   VS3  279   2.281   1.471   9.500
   10GIB0   NOH  280   2.286   1.350   6.950
   10GIB0   GLA  281   2.296   1.052   6.650
   10GIB0   GLB  282   2.225   1.630   6.650
   10GIB0   C1A  283   2.250   1.028   6.350
   10GIB0   C2A  284   2.261   1.023   6.050
   10GIB0   C3A  285   2.246   1.043   5.750
   10GIB0   C1B  286   2.306   1.594   6.350
   10GIB0   C2B  287   2.288   1.627   6.050
   10GIB0   C3B  288   2.312   1.544   5.750
   10GIB0   C4B  289   2.239   1.590   5.450
   10GIB0   C5B  290   2.234   1.561   5.150
   11GIB0   PO4  291   4.536   4.757   7.250
   11GIB0    A0  292   4.646   4.653   7.550
   11GIB0    B0  293   4.609   4.677   7.850
   11GIB0    C0  294   4.400   4.486   7.700
   11GIB0   VS0  295   4.426   4.579   7.700
   11GIB0    A1  296   4.538   4.717   8.150
   11GIB0    B1  297   4.533   4.663   8.450
   11GIB0    C2  298   4.353   4.586   8.300
   11GIB0    D1  299   4.353   4.306   8.300
   11GIB0   VS1  300   4.331   4.623   8.300
   11GIB0    A2  301   4.564   4.745   8.750
   11GIB0    B2  302   4.531   4.737   9.050
   11GIB0    C2  303   4.381   4.439   8.900
   11GIB0   VS2  304   4.364   4.628   8.900
   11GIB0    A3  305   4.479   4.703   9.350
   11GIB0    B3  306   4.490   4.744   9.650
   11GIB0    C3  307   4.346   4.500   9.500
   11GIB0   VS3  308   4.401   4.590   9.500
   11GIB0   NOH  309   4.566   4.686   6.950
   11GIB0   GLA  310   4.713   4.956   6.650
   11GIB0   GLB  311   4.373   4.431   6.650
   11GIB0   C1A  312   4.638   4.979   6.350
   11GIB0   C2A  313   4.632   4.910   6.050
   11GIB0   C3A  314   4.637   4.921   5.750
   11GIB0   C1B  315   4.383   4.452   6.350
   11GIB0   C2B  316   4.341   4.510   6.050
   11GIB0   C3B  317   4.320   4.445   5.750
   11GIB0   C4B  318   4.374   4.438   5.450
   11GIB0   C5B  319   4.354   4.481   5.150
   12GIB0   PO4  320   3.640   0.480   7.250
   12GIB0    A0  321   3.746   0.572   7.550
   12GIB0    B0  322   3.802   0.507   7.850
   12GIB0    C0  323   3.681   0.149   7.700
   12GIB0   VS0  324   3.600   0.320   7.700
   12GIB0    A1  325   3.708   0.432   8.150
   12GIB0    B1  326   3.637   0.487   8.450
   12GIB0    C2  327   3.558   0.350   8.300
   12GIB0    D1  328   3.700   0.111   8.300
   12GIB0   VS1  329   3.646   0.277   8.300
   12GIB0    A2  330   3.686   0.444   8.750
   12GIB0    B2  331   3.641   0.423   9.050
   12GIB0    C2  332   3.649   0.152   8.900
   12GIB0   VS2  333   3.575   0.335   8.900
   12GIB0    A3  334   3.660   0.518   9.350
   12GIB0    B3  335   3.662   0.480   9.650
   12GIB0    C3  336   3.630   0.220   9.500
   12GIB0   VS3  337   3.565   0.293   9.500
   12GIB0   NOH  338   3.633   0.440   6.950
   12GIB0   GLA  339   3.671   0.700   6.650
   12GIB0   GLB  340   3.682   0.156   6.650
   12GIB0   C1A  341   3.664   0.752   6.350
   12GIB0   C2A  342   3.644   0.753   6.050
   12GIB0   C3A  343   3.692   0.733   5.750
   12GIB0   C1B  344   3.677   0.188   6.350
   12GIB0   C2B  345   3.640   0.159   6.050
   12GIB0   C3B  346   3.695   0.190   5.750
   12GIB0   C4B  347   3.699   0.143   5.450
   12GIB0   C5B  348   3.668   0.204   5.150
   13GIB0   PO4  349   1.980   2.077   7.250
   13GIB0    A0  350   2.098   2.123   7.550
   13GIB0    B0  351   2.105   2.180   7.850
   13GIB0    C0  352   2.173   1.794   7.700
   13GIB0   VS0  353   2.039   1.880   7.700
   13GIB0    A1  354   2.029   2.082   8.150
   13GIB0    B1  355   2.001   2.102   8.450
   13GIB0    C2  356   2.101   1.871   8.300
   13GIB0    D1  357   2.334   1.775   8.300
   13GIB0   VS1  358   2.078   1.904   8.300
   13GIB0    A2  359   2.049   2.023   8.750
   13GIB0    B2  360   2.061   2.047   9.050
   13GIB0    C2  361   2.218   1.833   8.900
   13GIB0   VS2  362   2.062   1.869   8.900
   13GIB0    A3  363   1.982   2.091   9.350
   13GIB0    B3  364   2.006   2.056   9.650
   13GIB0    C3  365   2.136   1.838   9.500
   13GIB0   VS3  366   2.045   1.870   9.500
   13GIB0   NOH  367   1.979   2.059   6.950
   13GIB0   GLA  368   1.896   2.300   6.650
   13GIB0   GLB  369   2.181   1.800   6.650
   13GIB0   C1A  370   1.904   2.291   6.350
   13GIB0   C2A  371   1.836   2.317   6.050
   13GIB0   C3A  372   1.809   2.249   5.750
   13GIB0   C1B  373   2.201   1.783   6.350
   13GIB0   C2B  374   2.184   1.798   6.050
   13GIB0   C3B  375   2.227   1.775   5.750
   13GIB0   C4B  376   2.140   1.785   5.450
   13GIB0   C5B  377   2.132   1.857   5.150
   14GIB0   PO4  378   4.614   1.430   7.250
   14GIB0    A0  379   4.706   1.293   7.550
   14GIB0    B0  380   4.703   1.360   7.850
   14GIB0    C0  381   4.395   1.428   7.700
   14GIB0   VS0  382   4.432   1.476   7.700
   14GIB0    A1  383   4.594   1.392   8.150
   14GIB0    B1  384   4.661   1.480   8.450
   14GIB0    C2  385   4.476   1.552   8.300
   14GIB0    D1  386   4.213   1.411   8.300
   14GIB0   VS1  387   4.490   1.461   8.300
   14GIB0    A2  388   4.663   1.420   8.750
   14GIB0    B2  389   4.658   1.441   9.050
   14GIB0    C2  390   4.384   1.409   8.900
   14GIB0   VS2  391   4.519   1.524   8.900
   14GIB0    A3  392   4.637   1.471   9.350
   14GIB0    B3  393   4.660   1.433   9.650
   14GIB0    C3  394   4.343   1.500   9.500
   14GIB0   VS3  395   4.493   1.525   9.500
   14GIB0   NOH  396   4.619   1.451   6.950
   14GIB0   GLA  397   4.925   1.471   6.650
   14GIB0   GLB  398   4.387   1.457   6.650
   14GIB0   C1A  399   4.885   1.394   6.350
   14GIB0   C2A  400   4.936   1.425   6.050
   14GIB0   C3A  401   4.924   1.413   5.750
   14GIB0   C1B  402   4.339   1.498   6.350
   14GIB0   C2B  403   4.396   1.499   6.050
   14GIB0   C3B  404   4.355   1.501   5.750
   14GIB0   C4B  405   4.390   1.434   5.450
   14GIB0   C5B  406   4.366   1.489   5.150
   15GIB0   PO4  407   1.284   3.709   7.250
   15GIB0    A0  408   1.286   3.848   7.550
   15GIB0    B0  409   1.209   3.768   7.850
   15GIB0    C0  410   1.484   3.517   7.700
   15GIB0   VS0  411   1.411   3.588   7.700
   15GIB0    A1  412   1.216   3.651   8.150
   15GIB0    B1  413   1.202   3.671   8.450
   15GIB0    C2  414   1.417   3.552   8.300
   15GIB0    D1  415   1.626   3.514   8.300
   15GIB0   VS1  416   1.417   3.525   8.300
   15GIB0    A2  417   1.221   3.661   8.750
   15GIB0    B2  418   1.227   3.710   9.050
   15GIB0    C2  419   1.492   3.546   8.900
   15GIB0   VS2  420   1.368   3.503   8.900
   15GIB0    A3  421   1.224   3.640   9.350
   15GIB0    B3  422   1.203   3.645   9.650
   15GIB0    C3  423   1.542   3.519   9.500
   15GIB0   VS3  424   1.337   3.529   9.500
   15GIB0   NOH  425   1.191   3.715   6.950
   15GIB0   GLA  426   0.976   3.842   6.650
   15GIB0   GLB  427   1.533   3.542   6.650
   15GIB0   C1A  428   1.026   3.789   6.350
   15GIB0   C2A  429   1.015   3.832   6.050
   15GIB0   C3A  430   1.031   3.777   5.750
   15GIB0   C1B  431   1.504   3.567   6.350
   15GIB0   C2B  432   1.526   3.551   6.050
   15GIB0   C3B  433   1.481   3.602   5.750
   15GIB0   C4B  434   1.465   3.543   5.450
   15GIB0   C5B  435   1.464   3.556   5.150
   16GIB0   PO4  436   0.528   3.681   7.250
   16GIB0    A0  437   0.429   3.784   7.550
   16GIB0    B0  438   0.447   3.724   7.850
   16GIB0    C0  439   0.747   3.742   7.700
   16GIB0   VS0  440   0.665   3.735   7.700
   16GIB0    A1  441   0.561   3.691   8.150
   16GIB0    B1  442   0.502   3.697   8.450
   16GIB0    C2  443   0.695   3.712   8.300
   16GIB0    D1  444   0.842   3.885   8.300
   16GIB0   VS1  445   0.740   3.716   8.300
   16GIB0    A2  446   0.502   3.687   8.750
   16GIB0    B2  447   0.547   3.622   9.050
   16GIB0    C2  448   0.825   3.809   8.900
   16GIB0   VS2  449   0.685   3.674   8.900
   16GIB0    A3  450   0.513   3.637   9.350
   16GIB0    B3  451   0.534   3.699   9.650
   16GIB0    C3  452   0.812   3.736   9.500
   16GIB0   VS3  453   0.653   3.677   9.500
   16GIB0   NOH  454   0.498   3.691   6.950
   16GIB0   GLA  455   0.245   3.612   6.650
   16GIB0   GLB  456   0.786   3.733   6.650
   16GIB0   C1A  457   0.283   3.594   6.350
   16GIB0   C2A  458   0.220   3.606   6.050
   16GIB0   C3A  459   0.244   3.578   5.750
   16GIB0   C1B  460   0.792   3.786   6.350
   16GIB0   C2B  461   0.780   3.736   6.050
   16GIB0   C3B  462   0.732   3.734   5.750
   16GIB0   C4B  463   0.780   3.730   5.450
   16GIB0   C5B  464   0.738   3.794   5.150
   17GIB0   PO4  465   3.018   0.359   7.250
   17GIB0    A0  466   2.903   0.421   7.550
   17GIB0    B0  467   2.962   0.409   7.850
   17GIB0    C0  468   3.266   0.578   7.700
   17GIB0   VS0  469   3.179   0.433   7.700
   17GIB0    A1  470   3.083   0.397   8.150
   17GIB0    B1  471   3.032   0.377   8.450
   17GIB0    C2  472   3.195   0.446   8.300
   17GIB0    D1  473   3.351   0.716   8.300
   17GIB0   VS1  474   3.266   0.487   8.300
   17GIB0    A2  475   3.029   0.370   8.750
   17GIB0    B2  476   3.075   0.317   9.050
   17GIB0    C2  477   3.285   0.528   8.900
   17GIB0   VS2  478   3.227   0.423   8.900
   17GIB0    A3  479   3.020   0.408   9.350
   17GIB0    B3  480   3.023   0.338   9.650
   17GIB0    C3  481   3.246   0.607   9.500
   17GIB0   VS3  482   3.266   0.395   9.500
   17GIB0   NOH  483   3.086   0.411   6.950
   17GIB0   GLA  484   2.848   0.213   6.650
   17GIB0   GLB  485   3.307   0.529   6.650
   17GIB0   C1A  486   2.904   0.176   6.350
   17GIB0   C2A  487   2.818   0.216   6.050
   17GIB0   C3A  488   2.837   0.131   5.750
   17GIB0   C1B  489   3.272   0.525   6.350
   17GIB0   C2B  490   3.261   0.549   6.050
   17GIB0   C3B  491   3.232   0.515   5.750
   17GIB0   C4B  492   3.251   0.562   5.450
   17GIB0   C5B  493   3.281   0.541   5.150
   18GIB0   PO4  494   1.174   2.954   7.250
   18GIB0    A0  495   1.327   2.986   7.550
   18GIB0    B0  496   1.241   3.037   7.850
   18GIB0    C0  497   1.143   2.683   7.700
   18GIB0   VS0  498   1.065   2.810   7.700
   18GIB0    A1  499   1.129   2.947   8.150
   18GIB0    B1  500   1.207   3.018   8.450
   18GIB0    C2  501   1.107   2.816   8.300
   18GIB0    D1  502   1.171   2.566   8.300
   18GIB0   VS1  503   1.113   2.815   8.300
   18GIB0    A2  504   1.114   3.014   8.750
   18GIB0    B2  505   1.183   3.003   9.050
   18GIB0    C2  506   1.154   2.679   8.900
   18GIB0   VS2  507   1.078   2.817   8.900
   18GIB0    A3  508   1.113   2.970   9.350
   18GIB0    B3  509   1.207   3.031   9.650
   18GIB0    C3  510   1.078   2.687   9.500
   18GIB0   VS3  511   1.127   2.792   9.500
   18GIB0   NOH  512   1.204   2.984   6.950
   18GIB0   GLA  513   1.176   3.246   6.650
   18GIB0   GLB  514   1.095   2.729   6.650
   18GIB0   C1A  515   1.221   3.264   6.350
   18GIB0   C2A  516   1.181   3.261   6.050
   18GIB0   C3A  517   1.233   3.217   5.750
   18GIB0   C1B  518   1.171   2.721   6.350
   18GIB0   C2B  519   1.149   2.671   6.050
   18GIB0   C3B  520   1.162   2.732   5.750
   18GIB0   C4B  521   1.150   2.752   5.450
   18GIB0   C5B  522   1.091   2.673   5.150
   19POPC   NC3  523   1.268   2.086   6.950
   19POPC   PO4  524   1.330   2.102   6.650
   19POPC   GL1  525   1.334   2.138   6.350
   19POPC   GL2  526   1.322   2.229   6.350
   19POPC   C1A  527   1.301   2.157   6.050
   19POPC   D2A  528   1.329   2.149   5.750
   19POPC   C3A  529   1.328   2.158   5.450
   19POPC   C4A  530   1.317   2.118   5.150
   19POPC   C1B  531   1.293   2.360   6.050
   19POPC   C2B  532   1.224   2.336   5.750
   19POPC   C3B  533   1.230   2.368   5.450
   19POPC   C4B  534   1.216   2.400   5.150
   20POPC   NC3  535   1.294   0.432   6.950
   20POPC   PO4  536   1.301   0.460   6.650
   20POPC   GL1  537   1.313   0.462   6.350
   20POPC   GL2  538   1.324   0.390   6.350
   20POPC   C1A  539   1.297   0.435   6.050
   20POPC   D2A  540   1.305   0.482   5.750
   20POPC   C3A  541   1.299   0.437   5.450
   20POPC   C4A  542   1.330   0.427   5.150
   20POPC   C1B  543   1.313   0.249   6.050
   20POPC   C2B  544   1.374   0.256   5.750
   20POPC   C3B  545   1.300   0.265   5.450
   20POPC   C4B  546   1.281   0.200   5.150
   21POPC   NC3  547   0.498   4.643   6.950
   21POPC   PO4  548   0.451   4.666   6.650
   21POPC   GL1  549   0.463   4.587   6.350
   21POPC   GL2  550   0.337   4.689   6.350
   21POPC   C1A  551   0.476   4.657   6.050
   21POPC   D2A  552   0.502   4.605   5.750
   21POPC   C3A  553   0.457   4.646   5.450
   21POPC   C4A  554   0.446   4.642   5.150
   21POPC   C1B  555   0.231   4.745   6.050
   21POPC   C2B  556   0.251   4.672   5.750
   21POPC   C3B  557   0.262   4.744   5.450
   21POPC   C4B  558   0.183   4.672   5.150
   22POPC   NC3  559   3.760   2.125   6.950
   22POPC   PO4  560   3.820   2.122   6.650
   22POPC   GL1  561   3.785   2.102   6.350
   22POPC   GL2  562   3.806   2.305   6.350
   22POPC   C1A  563   3.760   2.094   6.050
   22POPC   D2A  564   3.776   2.144   5.750
   22POPC   C3A  565   3.804   2.175   5.450
   22POPC   C4A  566   3.847   2.086   5.150
   22POPC   C1B  567   3.735   2.381   6.050
   22POPC   C2B  568   3.712   2.361   5.750
   22POPC   C3B  569   3.754   2.387   5.450
   22POPC   C4B  570   3.779   2.403   5.150
   23POPC   NC3  571   2.918   3.771   6.950
   23POPC   PO4  572   2.958   3.789   6.650
   23POPC   GL1  573   2.971   3.758   6.350
   23POPC   GL2  574   2.916   3.638   6.350
   23POPC   C1A  575   2.960   3.832   6.050
   23POPC   D2A  576   2.987   3.755   5.750
   23POPC   C3A  577   2.917   3.800   5.450
   23POPC   C4A  578   2.924   3.848   5.150
   23POPC   C1B  579   2.920   3.564   6.050
   23POPC   C2B  580   2.959   3.521   5.750
   23POPC   C3B  581   2.896   3.553   5.450
   23POPC   C4B  582   2.972   3.531   5.150
   24POPC   NC3  583   4.636   2.114   6.950
   24POPC   PO4  584   4.638   2.152   6.650
   24POPC   GL1  585   4.617   2.178   6.350
   24POPC   GL2  586   4.705   2.039   6.350
   24POPC   C1A  587   4.600   2.093   6.050
   24POPC   D2A  588   4.677   2.114   5.750
   24POPC   C3A  589   4.645   2.177   5.450
   24POPC   C4A  590   4.612   2.148   5.150
   24POPC   C1B  591   4.749   1.893   6.050
   24POPC   C2B  592   4.728   1.877   5.750
   24POPC   C3B  593   4.786   1.867   5.450
   24POPC   C4B  594   4.778   1.867   5.150
   25POPC   NC3  595   4.613   3.848   6.950
   25POPC   PO4  596   4.641   3.839   6.650
   25POPC   GL1  597   4.645   3.828   6.350
   25POPC   GL2  598   4.727   3.764   6.350
   25POPC   C1A  599   4.667   3.813   6.050
   25POPC   D2A  600   4.682   3.839   5.750
   25POPC   C3A  601   4.680   3.847   5.450
   25POPC   C4A  602   4.592   3.771   5.150
   25POPC   C1B  603   4.817   3.673   6.050
   25POPC   C2B  604   4.911   3.694   5.750
   25POPC   C3B  605   4.860   3.739   5.450
   25POPC   C4B  606   4.814   3.658   5.150
   26POPC   NC3  607   2.086   2.945   6.950
   26POPC   PO4  608   2.153   3.003   6.650
   26POPC   GL1  609   2.169   2.955   6.350
   26POPC   GL2  610   2.288   2.954   6.350
   26POPC   C1A  611   2.111   2.945   6.050
   26POPC   D2A  612   2.125   2.946   5.750
   26POPC   C3A  613   2.166   3.012   5.450
   26POPC   C4A  614   2.099   2.944   5.150
   26POPC   C1B  615   2.379   2.886   6.050
   26POPC   C2B  616   2.401   2.889   5.750
   26POPC   C3B  617   2.340   2.901   5.450
   26POPC   C4B  618   2.350   2.855   5.150
   27POPC   NC3  619   3.804   2.920   6.950
   27POPC   PO4  620   3.832   2.950   6.650
   27POPC   GL1  621   3.803   2.968   6.350
   27POPC   GL2  622   3.897   2.955   6.350
   27POPC   C1A  623   3.783   2.989   6.050
   27POPC   D2A  624   3.755   2.959   5.750
   27POPC   C3A  625   3.783   2.980   5.450
   27POPC   C4A  626   3.766   2.931   5.150
   27POPC   C1B  627   4.019   3.015   6.050
   27POPC   C2B  628   4.061   3.048   5.750
   27POPC   C3B  629   4.057   2.997   5.450
   27POPC   C4B  630   4.013   2.983   5.150
   28POPC   NC3  631   2.156   3.766   6.950
   28POPC   PO4  632   2.162   3.752   6.650
   28POPC   GL1  633   2.099   3.780   6.350
   28POPC   GL2  634   2.125   3.887   6.350
   28POPC   C1A  635   2.142   3.764   6.050
   28POPC   D2A  636   2.158   3.758   5.750
   28POPC   C3A  637   2.084   3.789   5.450
   28POPC   C4A  638   2.092   3.770   5.150
   28POPC   C1B  639   2.153   4.028   6.050
   28POPC   C2B  640   2.073   4.046   5.750
   28POPC   C3B  641   2.101   4.070   5.450
   28POPC   C4B  642   2.133   4.082   5.150
   29POPC   NC3  643   2.947   2.089   6.950
   29POPC   PO4  644   3.012   2.100   6.650
   29POPC   GL1  645   2.961   2.119   6.350
   29POPC   GL2  646   2.970   2.256   6.350
   29POPC   C1A  647   2.963   2.132   6.050
   29POPC   D2A  648   2.942   2.118   5.750
   29POPC   C3A  649   2.947   2.144   5.450
   29POPC   C4A  650   2.974   2.174   5.150
   29POPC   C1B  651   2.912   2.391   6.050
   29POPC   C2B  652   2.977   2.375   5.750
   29POPC   C3B  653   2.933   2.344   5.450
   29POPC   C4B  654   2.971   2.416   5.150
   30POPC   NC3  655   4.592   2.983   6.950
   30POPC   PO4  656   4.677   2.968   6.650
   30POPC   GL1  657   4.633   2.994   6.350
   30POPC   GL2  658   4.729   2.964   6.350
   30POPC   C1A  659   4.671   3.012   6.050
   30POPC   D2A  660   4.642   2.926   5.750
   30POPC   C3A  661   4.598   2.947   5.450
   30POPC   C4A  662   4.621   2.970   5.150
   30POPC   C1B  663   4.911   2.942   6.050
   30POPC   C2B  664   4.858   2.913   5.750
   30POPC   C3B  665   4.834   2.904   5.450
   30POPC   C4B  666   4.905   2.930   5.150
   31POPC   NC3  667   0.495   2.108   6.950
   31POPC   PO4  668   0.435   2.176   6.650
   31POPC   GL1  669   0.417   2.090   6.350
   31POPC   GL2  670   0.389   2.107   6.350
   31POPC   C1A  671   0.446   2.149   6.050
   31POPC   D2A  672   0.451   2.138   5.750
   31POPC   C3A  673   0.508   2.112   5.450
   31POPC   C4A  674   0.509   2.137   5.150
   31POPC   C1B  675   0.210   2.029   6.050
   31POPC   C2B  676   0.182   2.069   5.750
   31POPC   C3B  677   0.181   2.088   5.450
   31POPC   C4B  678   0.243   2.119   5.150
   32POPC   NC3  679   3.004   1.279   6.950
   32POPC   PO4  680   2.963   1.329   6.650
   32POPC   GL1  681   2.980   1.251   6.350
   32POPC   GL2  682   3.055   1.379   6.350
   32POPC   C1A  683   2.999   1.346   6.050
   32POPC   D2A  684   3.003   1.348   5.750
   32POPC   C3A  685   2.978   1.261   5.450
   32POPC   C4A  686   2.962   1.288   5.150
   32POPC   C1B  687   3.105   1.525   6.050
   32POPC   C2B  688   3.099   1.505   5.750
   32POPC   C3B  689   3.100   1.491   5.450
   32POPC   C4B  690   3.146   1.498   5.150
   33POPC   NC3  691   3.014   4.622   6.950
   33POPC   PO4  692   2.923   4.590   6.650
   33POPC   GL1  693   2.987   4.634   6.350
   33POPC   GL2  694   2.832   4.608   6.350
   33POPC   C1A  695   2.949   4.670   6.050
   33POPC   D2A  696   2.937   4.650   5.750
   33POPC   C3A  697   2.938   4.668   5.450
   33POPC   C4A  698   2.937   4.617   5.150
   33POPC   C1B  699   2.710   4.645   6.050
   33POPC   C2B  700   2.758   4.676   5.750
   33POPC   C3B  701   2.718   4.626   5.450
   33POPC   C4B  702   2.712   4.642   5.150
   34POPC   NC3  703   3.014   2.948   6.950
   34POPC   PO4  704   3.010   2.985   6.650
   34POPC   GL1  705   2.953   2.982   6.350
   34POPC   GL2  706   2.851   2.928   6.350
   34POPC   C1A  707   2.937   2.964   6.050
   34POPC   D2A  708   3.011   3.006   5.750
   34POPC   C3A  709   2.995   2.962   5.450
   34POPC   C4A  710   2.929   3.008   5.150
   34POPC   C1B  711   2.809   2.861   6.050
   34POPC   C2B  712   2.802   2.782   5.750
   34POPC   C3B  713   2.807   2.837   5.450
   34POPC   C4B  714   2.714   2.832   5.150
   35POPC   NC3  715   2.115   4.631   6.950
   35POPC   PO4  716   2.156   4.674   6.650
   35POPC   GL1  717   2.099   4.589   6.350
   35POPC   GL2  718   2.165   4.712   6.350
   35POPC   C1A  719   2.153   4.628   6.050
   35POPC   D2A  720   2.156   4.640   5.750
   35POPC   C3A  721   2.088   4.628   5.450
   35POPC   C4A  722   2.091   4.609   5.150
   35POPC   C1B  723   2.213   4.836   6.050
   35POPC   C2B  724   2.139   4.904   5.750
   35POPC   C3B  725   2.217   4.887   5.450
   35POPC   C4B  726   2.129   4.893   5.150
   36POPC   NC3  727   0.496   2.958   6.950
   36POPC   PO4  728   0.475   2.945   6.650
   36POPC   GL1  729   0.447   3.002   6.350
   36POPC   GL2  730   0.418   3.128   6.350
   36POPC   C1A  731   0.506   2.951   6.050
   36POPC   D2A  732   0.498   2.958   5.750
   36POPC   C3A  733   0.467   2.925   5.450
   36POPC   C4A  734   0.501   3.010   5.150
   36POPC   C1B  735   0.461   3.209   6.050
   36POPC   C2B  736   0.458   3.194   5.750
   36POPC   C3B  737   0.487   3.170   5.450
   36POPC   C4B  738   0.493   3.196   5.150
   37GIB0   PO4  739   4.520   2.191   2.750
   37GIB0    A0  740   4.653   2.182   2.450
   37GIB0    B0  741   4.658   2.239   2.150
   37GIB0    C0  742   4.419   1.906   2.300
   37GIB0   VS0  743   4.398   2.012   2.300
   37GIB0    A1  744   4.507   2.194   1.850
   37GIB0    B1  745   4.469   2.199   1.550
   37GIB0    C2  746   4.378   1.996   1.700
   37GIB0    D1  747   4.448   1.732   1.700
   37GIB0   VS1  748   4.407   2.031   1.700
   37GIB0    A2  749   4.512   2.155   1.250
   37GIB0    B2  750   4.500   2.178   0.950
   37GIB0    C2  751   4.395   1.930   1.100
   37GIB0   VS2  752   4.372   1.979   1.100
   37GIB0    A3  753   4.537   2.208   0.650
   37GIB0    B3  754   4.540   2.218   0.350
   37GIB0    C3  755   4.457   1.895   0.500
   37GIB0   VS3  756   4.352   2.073   0.500
   37GIB0   NOH  757   4.525   2.219   3.050
   37GIB0   GLA  758   4.604   2.473   3.350
   37GIB0   GLB  759   4.433   1.864   3.350
   37GIB0   C1A  760   4.594   2.415   3.650
   37GIB0   C2A  761   4.540   2.406   3.950
   37GIB0   C3A  762   4.538   2.416   4.250
   37GIB0   C1B  763   4.415   1.881   3.650
   37GIB0   C2B  764   4.383   1.918   3.950
   37GIB0   C3B  765   4.434   1.931   4.250
   37GIB0   C4B  766   4.466   1.940   4.550
   37GIB0   C5B  767   4.473   1.935   4.850
   38GIB0   PO4  768   0.293   2.970   2.750
   38GIB0    A0  769   0.474   3.056   2.450
   38GIB0    B0  770   0.457   3.049   2.150
   38GIB0    C0  771   0.190   2.728   2.300
   38GIB0   VS0  772   0.205   2.875   2.300
   38GIB0    A1  773   0.356   2.998   1.850
   38GIB0    B1  774   0.301   3.003   1.550
   38GIB0    C2  775   0.218   2.869   1.700
   38GIB0    D1  776   0.220   2.657   1.700
   38GIB0   VS1  777   0.256   2.872   1.700
   38GIB0    A2  778   0.316   3.059   1.250
   38GIB0    B2  779   0.373   3.007   0.950
   38GIB0    C2  780   0.215   2.802   1.100
   38GIB0   VS2  781   0.215   2.882   1.100
   38GIB0    A3  782   0.289   3.058   0.650
   38GIB0    B3  783   0.361   3.055   0.350
   38GIB0    C3  784   0.245   2.716   0.500
   38GIB0   VS3  785   0.247   2.861   0.500
   38GIB0   NOH  786   0.357   3.011   3.050
   38GIB0   GLA  787   0.441   3.239   3.350
   38GIB0   GLB  788   0.210   2.716   3.350
   38GIB0   C1A  789   0.456   3.244   3.650
   38GIB0   C2A  790   0.438   3.278   3.950
   38GIB0   C3A  791   0.417   3.297   4.250
   38GIB0   C1B  792   0.277   2.773   3.650
   38GIB0   C2B  793   0.228   2.786   3.950
   38GIB0   C3B  794   0.238   2.732   4.250
   38GIB0   C4B  795   0.211   2.740   4.550
   38GIB0   C5B  796   0.256   2.747   4.850
   39GIB0   PO4  797   3.812   0.301   2.750
   39GIB0    A0  798   3.707   0.429   2.450
   39GIB0    B0  799   3.752   0.426   2.150
   39GIB0    C0  800   4.123   0.407   2.300
   39GIB0   VS0  801   3.942   0.251   2.300
   39GIB0    A1  802   3.830   0.312   1.850
   39GIB0    B1  803   3.858   0.351   1.550
   39GIB0    C2  804   3.996   0.272   1.700
   39GIB0    D1  805   4.200   0.479   1.700
   39GIB0   VS1  806   3.975   0.279   1.700
   39GIB0    A2  807   3.846   0.284   1.250
   39GIB0    B2  808   3.807   0.310   0.950
   39GIB0    C2  809   4.097   0.338   1.100
   39GIB0   VS2  810   3.974   0.304   1.100
   39GIB0    A3  811   3.805   0.323   0.650
   39GIB0    B3  812   3.832   0.374   0.350
   39GIB0    C3  813   4.101   0.377   0.500
   39GIB0   VS3  814   3.953   0.253   0.500
   39GIB0   NOH  815   3.855   0.278   3.050
   39GIB0   GLA  816   3.533   0.333   3.350
   39GIB0   GLB  817   4.142   0.357   3.350
   39GIB0   C1A  818   3.543   0.329   3.650
   39GIB0   C2A  819   3.547   0.312   3.950
   39GIB0   C3A  820   3.554   0.267   4.250
   39GIB0   C1B  821   4.057   0.351   3.650
   39GIB0   C2B  822   4.129   0.410   3.950
   39GIB0   C3B  823   4.112   0.320   4.250
   39GIB0   C4B  824   4.105   0.316   4.550
   39GIB0   C5B  825   4.069   0.327   4.850
   40GIB0   PO4  826   2.968   2.040   2.750
   40GIB0    A0  827   2.880   2.143   2.450
   40GIB0    B0  828   2.958   2.064   2.150
   40GIB0    C0  829   3.303   2.016   2.300
   40GIB0   VS0  830   3.162   2.025   2.300
   40GIB0    A1  831   3.009   2.034   1.850
   40GIB0    B1  832   3.010   1.985   1.550
   40GIB0    C2  833   3.174   1.994   1.700
   40GIB0    D1  834   3.399   2.135   1.700
   40GIB0   VS1  835   3.147   2.029   1.700
   40GIB0    A2  836   2.976   1.958   1.250
   40GIB0    B2  837   3.003   2.003   0.950
   40GIB0    C2  838   3.310   2.029   1.100
   40GIB0   VS2  839   3.210   2.002   1.100
   40GIB0    A3  840   3.015   1.950   0.650
   40GIB0    B3  841   3.047   1.979   0.350
   40GIB0    C3  842   3.270   2.071   0.500
   40GIB0   VS3  843   3.160   1.933   0.500
   40GIB0   NOH  844   2.998   1.953   3.050
   40GIB0   GLA  845   2.742   1.912   3.350
   40GIB0   GLB  846   3.291   2.034   3.350
   40GIB0   C1A  847   2.696   1.962   3.650
   40GIB0   C2A  848   2.719   1.943   3.950
   40GIB0   C3A  849   2.732   1.936   4.250
   40GIB0   C1B  850   3.292   2.087   3.650
   40GIB0   C2B  851   3.318   2.072   3.950
   40GIB0   C3B  852   3.235   2.062   4.250
   40GIB0   C4B  853   3.254   2.098   4.550
   40GIB0   C5B  854   3.310   2.026   4.850
   41GIB0   PO4  855   1.983   3.004   2.750
   41GIB0    A0  856   2.109   3.001   2.450
   41GIB0    B0  857   2.112   3.024   2.150
   41GIB0    C0  858   1.862   2.811   2.300
   41GIB0   VS0  859   1.853   2.914   2.300
   41GIB0    A1  860   2.045   3.004   1.850
   41GIB0    B1  861   1.986   3.033   1.550
   41GIB0    C2  862   1.843   2.953   1.700
   41GIB0    D1  863   1.797   2.727   1.700
   41GIB0   VS1  864   1.888   2.937   1.700
   41GIB0    A2  865   2.016   3.087   1.250
   41GIB0    B2  866   2.006   3.059   0.950
   41GIB0    C2  867   1.816   2.827   1.100
   41GIB0   VS2  868   1.835   2.906   1.100
   41GIB0    A3  869   2.038   3.084   0.650
   41GIB0    B3  870   2.018   3.050   0.350
   41GIB0    C3  871   1.874   2.854   0.500
   41GIB0   VS3  872   1.830   2.990   0.500
   41GIB0   NOH  873   1.984   3.034   3.050
   41GIB0   GLA  874   2.145   3.280   3.350
   41GIB0   GLB  875   1.815   2.789   3.350
   41GIB0   C1A  876   2.196   3.296   3.650
   41GIB0   C2A  877   2.191   3.255   3.950
   41GIB0   C3A  878   2.212   3.259   4.250
   41GIB0   C1B  879   1.892   2.832   3.650
   41GIB0   C2B  880   1.840   2.837   3.950
   41GIB0   C3B  881   1.897   2.850   4.250
   41GIB0   C4B  882   1.877   2.870   4.550
   41GIB0   C5B  883   1.812   2.842   4.850
   42GIB0   PO4  884   0.545   0.376   2.750
   42GIB0    A0  885   0.427   0.390   2.450
   42GIB0    B0  886   0.476   0.384   2.150
   42GIB0    C0  887   0.821   0.536   2.300
   42GIB0   VS0  888   0.695   0.432   2.300
   42GIB0    A1  889   0.528   0.386   1.850
   42GIB0    B1  890   0.573   0.380   1.550
   42GIB0    C2  891   0.699   0.344   1.700
   42GIB0    D1  892   0.803   0.598   1.700
   42GIB0   VS1  893   0.754   0.403   1.700
   42GIB0    A2  894   0.517   0.326   1.250
   42GIB0    B2  895   0.525   0.317   0.950
   42GIB0    C2  896   0.773   0.470   1.100
   42GIB0   VS2  897   0.690   0.371   1.100
   42GIB0    A3  898   0.558   0.299   0.650
   42GIB0    B3  899   0.577   0.360   0.350
   42GIB0    C3  900   0.748   0.466   0.500
   42GIB0   VS3  901   0.750   0.358   0.500
   42GIB0   NOH  902   0.565   0.379   3.050
   42GIB0   GLA  903   0.330   0.161   3.350
   42GIB0   GLB  904   0.812   0.500   3.350
   42GIB0   C1A  905   0.352   0.241   3.650
   42GIB0   C2A  906   0.271   0.191   3.950
   42GIB0   C3A  907   0.307   0.212   4.250
   42GIB0   C1B  908   0.761   0.530   3.650
   42GIB0   C2B  909   0.748   0.507   3.950
   42GIB0   C3B  910   0.733   0.450   4.250
   42GIB0   C4B  911   0.794   0.544   4.550
   42GIB0   C5B  912   0.746   0.477   4.850
   43GIB0   PO4  913   3.115   2.923   2.750
   43GIB0    A0  914   3.038   2.904   2.450
   43GIB0    B0  915   2.983   2.934   2.150
   43GIB0    C0  916   3.151   3.227   2.300
   43GIB0   VS0  917   3.213   3.135   2.300
   43GIB0    A1  918   3.145   2.918   1.850
   43GIB0    B1  919   3.095   2.984   1.550
   43GIB0    C2  920   3.166   3.110   1.700
   43GIB0    D1  921   3.113   3.377   1.700
   43GIB0   VS1  922   3.160   3.137   1.700
   43GIB0    A2  923   3.136   2.999   1.250
   43GIB0    B2  924   3.136   2.916   0.950
   43GIB0    C2  925   3.127   3.264   1.100
   43GIB0   VS2  926   3.195   3.085   1.100
   43GIB0    A3  927   3.098   2.986   0.650
   43GIB0    B3  928   3.141   2.955   0.350
   43GIB0    C3  929   3.153   3.267   0.500
   43GIB0   VS3  930   3.211   3.122   0.500
   43GIB0   NOH  931   3.058   3.004   3.050
   43GIB0   GLA  932   3.050   2.632   3.350
   43GIB0   GLB  933   3.084   3.218   3.350
   43GIB0   C1A  934   3.057   2.674   3.650
   43GIB0   C2A  935   3.094   2.724   3.950
   43GIB0   C3A  936   3.105   2.698   4.250
   43GIB0   C1B  937   3.133   3.195   3.650
   43GIB0   C2B  938   3.088   3.219   3.950
   43GIB0   C3B  939   3.091   3.201   4.250
   43GIB0   C4B  940   3.144   3.198   4.550
   43GIB0   C5B  941   3.155   3.266   4.850
   44GIB0   PO4  942   4.776   1.217   2.750
   44GIB0    A0  943   4.637   1.281   2.450
   44GIB0    B0  944   4.644   1.240   2.150
   44GIB0    C0  945   4.873   1.510   2.300
   44GIB0   VS0  946   4.845   1.384   2.300
   44GIB0    A1  947   4.734   1.251   1.850
   44GIB0    B1  948   4.742   1.251   1.550
   44GIB0    C2  949   4.930   1.341   1.700
   44GIB0    D1  950   4.944   1.582   1.700
   44GIB0   VS1  951   4.865   1.334   1.700
   44GIB0    A2  952   4.765   1.246   1.250
   44GIB0    B2  953   4.709   1.233   0.950
   44GIB0    C2  954   4.867   1.445   1.100
   44GIB0   VS2  955   4.851   1.353   1.100
   44GIB0    A3  956   4.720   1.202   0.650
   44GIB0    B3  957   4.795   1.278   0.350
   44GIB0    C3  958   4.937   1.500   0.500
   44GIB0   VS3  959   4.838   1.326   0.500
   44GIB0   NOH  960   4.705   1.189   3.050
   44GIB0   GLA  961   4.639   0.975   3.350
   44GIB0   GLB  962   4.858   1.440   3.350
   44GIB0   C1A  963   4.626   0.998   3.650
   44GIB0   C2A  964   4.619   0.949   3.950
   44GIB0   C3A  965   4.648   0.964   4.250
   44GIB0   C1B  966   4.902   1.454   3.650
   44GIB0   C2B  967   4.925   1.448   3.950
   44GIB0   C3B  968   4.912   1.427   4.250
   44GIB0   C4B  969   4.874   1.492   4.550
   44GIB0   C5B  970   4.878   1.472   4.850
   45GIB0   PO4  971   4.521   3.682   2.750
   45GIB0    A0  972   4.584   3.807   2.450
   45GIB0    B0  973   4.587   3.824   2.150
   45GIB0    C0  974   4.657   3.474   2.300
   45GIB0   VS0  975   4.582   3.533   2.300
   45GIB0    A1  976   4.523   3.740   1.850
   45GIB0    B1  977   4.499   3.705   1.550
   45GIB0    C2  978   4.606   3.596   1.700
   45GIB0    D1  979   4.805   3.381   1.700
   45GIB0   VS1  980   4.596   3.549   1.700
   45GIB0    A2  981   4.563   3.734   1.250
   45GIB0    B2  982   4.467   3.685   0.950
   45GIB0    C2  983   4.634   3.531   1.100
   45GIB0   VS2  984   4.566   3.509   1.100
   45GIB0    A3  985   4.502   3.764   0.650
   45GIB0    B3  986   4.551   3.719   0.350
   45GIB0    C3  987   4.645   3.499   0.500
   45GIB0   VS3  988   4.514   3.511   0.500
   45GIB0   NOH  989   4.467   3.766   3.050
   45GIB0   GLA  990   4.365   3.944   3.350
   45GIB0   GLB  991   4.713   3.447   3.350
   45GIB0   C1A  992   4.343   3.973   3.650
   45GIB0   C2A  993   4.386   3.992   3.950
   45GIB0   C3A  994   4.370   3.967   4.250
   45GIB0   C1B  995   4.627   3.441   3.650
   45GIB0   C2B  996   4.629   3.488   3.950
   45GIB0   C3B  997   4.640   3.463   4.250
   45GIB0   C4B  998   4.653   3.534   4.550
   45GIB0   C5B  999   4.621   3.454   4.850
   46GIB0   PO4 1000   0.534   1.447   2.750
   46GIB0    A0 1001   0.543   1.336   2.450
   46GIB0    B0 1002   0.531   1.349   2.150
   46GIB0    C0 1003   0.286   1.511   2.300
   46GIB0   VS0 1004   0.345   1.531   2.300
   46GIB0    A1 1005   0.513   1.406   1.850
   46GIB0    B1 1006   0.504   1.403   1.550
   46GIB0    C2 1007   0.371   1.534   1.700
   46GIB0    D1 1008   0.152   1.480   1.700
   46GIB0   VS1 1009   0.399   1.524   1.700
   46GIB0    A2 1010   0.528   1.468   1.250
   46GIB0    B2 1011   0.497   1.453   0.950
   46GIB0    C2 1012   0.211   1.510   1.100
   46GIB0   VS2 1013   0.353   1.579   1.100
   46GIB0    A3 1014   0.491   1.473   0.650
   46GIB0    B3 1015   0.476   1.411   0.350
   46GIB0    C3 1016   0.251   1.515   0.500
   46GIB0   VS3 1017   0.406   1.525   0.500
   46GIB0   NOH 1018   0.560   1.434   3.050
   46GIB0   GLA 1019   0.787   1.343   3.350
   46GIB0   GLB 1020   0.244   1.529   3.350
   46GIB0   C1A 1021   0.750   1.395   3.650
   46GIB0   C2A 1022   0.780   1.328   3.950
   46GIB0   C3A 1023   0.806   1.308   4.250
   46GIB0   C1B 1024   0.255   1.528   3.650
   46GIB0   C2B 1025   0.280   1.546   3.950
   46GIB0   C3B 1026   0.240   1.539   4.250
   46GIB0   C4B 1027   0.235   1.552   4.550
   46GIB0   C5B 1028   0.217   1.499   4.850
   47GIB0   PO4 1029   2.267   2.208   2.750
   47GIB0    A0 1030   2.159   2.109   2.450
   47GIB0    B0 1031   2.165   2.129   2.150
   47GIB0    C0 1032   2.202   2.403   2.300
   47GIB0   VS0 1033   2.302   2.338   2.300
   47GIB0    A1 1034   2.293   2.158   1.850
   47GIB0    B1 1035   2.287   2.196   1.550
   47GIB0    C2 1036   2.273   2.374   1.700
   47GIB0    D1 1037   2.092   2.547   1.700
   47GIB0   VS1 1038   2.272   2.392   1.700
   47GIB0    A2 1039   2.282   2.169   1.250
   47GIB0    B2 1040   2.277   2.118   0.950
   47GIB0    C2 1041   2.202   2.395   1.100
   47GIB0   VS2 1042   2.289   2.299   1.100
   47GIB0    A3 1043   2.275   2.130   0.650
   47GIB0    B3 1044   2.299   2.165   0.350
   47GIB0    C3 1045   2.172   2.466   0.500
   47GIB0   VS3 1046   2.284   2.337   0.500
   47GIB0   NOH 1047   2.226   2.188   3.050
   47GIB0   GLA 1048   2.374   1.930   3.350
   47GIB0   GLB 1049   2.228   2.410   3.350
   47GIB0   C1A 1050   2.378   1.920   3.650
   47GIB0   C2A 1051   2.298   1.942   3.950
   47GIB0   C3A 1052   2.308   1.885   4.250
   47GIB0   C1B 1053   2.219   2.390   3.650
   47GIB0   C2B 1054   2.159   2.444   3.950
   47GIB0   C3B 1055   2.174   2.481   4.250
   47GIB0   C4B 1056   2.205   2.388   4.550
   47GIB0   C5B 1057   2.225   2.464   4.850
   48GIB0   PO4 1058   2.803   3.820   2.750
   48GIB0    A0 1059   2.977   3.823   2.450
   48GIB0    B0 1060   2.938   3.885   2.150
   48GIB0    C0 1061   2.744   3.512   2.300
   48GIB0   VS0 1062   2.767   3.704   2.300
   48GIB0    A1 1063   2.793   3.837   1.850
   48GIB0    B1 1064   2.787   3.833   1.550
   48GIB0    C2 1065   2.758   3.713   1.700
   48GIB0    D1 1066   2.801   3.471   1.700
   48GIB0   VS1 1067   2.789   3.684   1.700
   48GIB0    A2 1068   2.813   3.800   1.250
   48GIB0    B2 1069   2.807   3.853   0.950
   48GIB0    C2 1070   2.785   3.517   1.100
   48GIB0   VS2 1071   2.727   3.705   1.100
   48GIB0    A3 1072   2.848   3.813   0.650
   48GIB0    B3 1073   2.806   3.788   0.350
   48GIB0    C3 1074   2.799   3.514   0.500
   48GIB0   VS3 1075   2.775   3.641   0.500
   48GIB0   NOH 1076   2.824   3.784   3.050
   48GIB0   GLA 1077   2.831   4.087   3.350
   48GIB0   GLB 1078   2.828   3.539   3.350
   48GIB0   C1A 1079   2.842   4.066   3.650
   48GIB0   C2A 1080   2.911   4.143   3.950
   48GIB0   C3A 1081   2.845   4.106   4.250
   48GIB0   C1B 1082   2.816   3.591   3.650
   48GIB0   C2B 1083   2.828   3.565   3.950
   48GIB0   C3B 1084   2.829   3.547   4.250
   48GIB0   C4B 1085   2.755   3.588   4.550
   48GIB0   C5B 1086   2.801   3.518   4.850
   49GIB0   PO4 1087   2.119   3.904   2.750
   49GIB0    A0 1088   2.156   3.893   2.450
   49GIB0    B0 1089   2.160   3.894   2.150
   49GIB0    C0 1090   1.857   3.789   2.300
   49GIB0   VS0 1091   1.889   3.939   2.300
   49GIB0    A1 1092   2.032   3.975   1.850
   49GIB0    B1 1093   2.059   3.959   1.550
   49GIB0    C2 1094   1.873   3.877   1.700
   49GIB0    D1 1095   1.698   3.686   1.700
   49GIB0   VS1 1096   1.929   3.916   1.700
   49GIB0    A2 1097   2.059   3.886   1.250
   49GIB0    B2 1098   2.106   3.947   0.950
   49GIB0    C2 1099   1.822   3.827   1.100
   49GIB0   VS2 1100   1.946   3.906   1.100
   49GIB0    A3 1101   2.099   3.941   0.650
   49GIB0    B3 1102   2.028   3.938   0.350
   49GIB0    C3 1103   1.813   3.823   0.500
   49GIB0   VS3 1104   1.855   3.888   0.500
   49GIB0   NOH 1105   2.043   3.976   3.050
   49GIB0   GLA 1106   2.378   4.088   3.350
   49GIB0   GLB 1107   1.843   3.803   3.350
   49GIB0   C1A 1108   2.298   4.063   3.650
   49GIB0   C2A 1109   2.363   4.074   3.950
   49GIB0   C3A 1110   2.330   4.055   4.250
   49GIB0   C1B 1111   1.809   3.792   3.650
   49GIB0   C2B 1112   1.834   3.857   3.950
   49GIB0   C3B 1113   1.821   3.802   4.250
   49GIB0   C4B 1114   1.839   3.777   4.550
   49GIB0   C5B 1115   1.815   3.763   4.850
   50GIB0   PO4 1116   3.131   1.353   2.750
   50GIB0    A0 1117   2.972   1.237   2.450
   50GIB0    B0 1118   3.045   1.256   2.150
   50GIB0    C0 1119   2.998   1.646   2.300
   50GIB0   VS0 1120   3.073   1.473   2.300
   50GIB0    A1 1121   3.119   1.306   1.850
   50GIB0    B1 1122   3.118   1.307   1.550
   50GIB0    C2 1123   3.099   1.512   1.700
   50GIB0    D1 1124   2.931   1.696   1.700
   50GIB0   VS1 1125   3.145   1.488   1.700
   50GIB0    A2 1126   3.082   1.367   1.250
   50GIB0    B2 1127   3.123   1.350   0.950
   50GIB0    C2 1128   2.992   1.645   1.100
   50GIB0   VS2 1129   3.093   1.489   1.100
   50GIB0    A3 1130   3.122   1.292   0.650
   50GIB0    B3 1131   3.111   1.337   0.350
   50GIB0    C3 1132   3.047   1.614   0.500
   50GIB0   VS3 1133   3.148   1.498   0.500
   50GIB0   NOH 1134   3.058   1.337   3.050
   50GIB0   GLA 1135   3.160   1.090   3.350
   50GIB0   GLB 1136   3.059   1.631   3.350
   50GIB0   C1A 1137   3.217   1.044   3.650
   50GIB0   C2A 1138   3.220   1.100   3.950
   50GIB0   C3A 1139   3.207   1.064   4.250
   50GIB0   C1B 1140   3.028   1.608   3.650
   50GIB0   C2B 1141   3.051   1.605   3.950
   50GIB0   C3B 1142   3.005   1.613   4.250
   50GIB0   C4B 1143   3.032   1.577   4.550
   50GIB0   C5B 1144   3.031   1.595   4.850
   51GIB0   PO4 1145   4.761   4.568   2.750
   51GIB0    A0 1146   4.648   4.555   2.450
   51GIB0    B0 1147   4.611   4.523   2.150
   51GIB0    C0 1148   4.925   4.766   2.300
   51GIB0   VS0 1149   4.879   4.648   2.300
   51GIB0    A1 1150   4.750   4.574   1.850
   51GIB0    B1 1151   4.768   4.600   1.550
   51GIB0    C2 1152   4.878   4.674   1.700
   51GIB0    D1 1153   4.872   4.964   1.700
   51GIB0   VS1 1154   4.884   4.690   1.700
   51GIB0    A2 1155   4.774   4.511   1.250
   51GIB0    B2 1156   4.802   4.588   0.950
   51GIB0    C2 1157   4.858   4.813   1.100
   51GIB0   VS2 1158   4.926   4.716   1.100
   51GIB0    A3 1159   4.769   4.546   0.650
   51GIB0    B3 1160   4.722   4.533   0.350
   51GIB0    C3 1161   4.864   4.800   0.500
   51GIB0   VS3 1162   4.892   4.667   0.500
   51GIB0   NOH 1163   4.798   4.595   3.050
   51GIB0   GLA 1164   4.598   4.325   3.350
   51GIB0   GLB 1165   4.882   4.791   3.350
   51GIB0   C1A 1166   4.599   4.310   3.650
   51GIB0   C2A 1167   4.621   4.273   3.950
   51GIB0   C3A 1168   4.567   4.315   4.250
   51GIB0   C1B 1169   4.914   4.775   3.650
   51GIB0   C2B 1170   4.915   4.786   3.950
   51GIB0   C3B 1171   4.915   4.807   4.250
   51GIB0   C4B 1172   4.891   4.807   4.550
   51GIB0   C5B 1173   4.878   4.803   4.850
   52GIB0   PO4 1174   2.867   0.363   2.750
   52GIB0    A0 1175   2.885   0.470   2.450
   52GIB0    B0 1176   2.886   0.547   2.150
   52GIB0    C0 1177   2.923   0.147   2.300
   52GIB0   VS0 1178   2.834   0.255   2.300
   52GIB0    A1 1179   2.854   0.358   1.850
   52GIB0    B1 1180   2.883   0.446   1.550
   52GIB0    C2 1181   2.861   0.247   1.700
   52GIB0    D1 1182   3.089   0.085   1.700
   52GIB0   VS1 1183   2.845   0.217   1.700
   52GIB0    A2 1184   2.881   0.434   1.250
   52GIB0    B2 1185   2.837   0.411   0.950
   52GIB0    C2 1186   2.986   0.200   1.100
   52GIB0   VS2 1187   2.836   0.220   1.100
   52GIB0    A3 1188   2.821   0.405   0.650
   52GIB0    B3 1189   2.816   0.379   0.350
   52GIB0    C3 1190   2.932   0.139   0.500
   52GIB0   VS3 1191   2.828   0.259   0.500
   52GIB0   NOH 1192   2.843   0.405   3.050
   52GIB0   GLA 1193   2.735   0.627   3.350
   52GIB0   GLB 1194   2.938   0.127   3.350
   52GIB0   C1A 1195   2.713   0.668   3.650
   52GIB0   C2A 1196   2.749   0.637   3.950
   52GIB0   C3A 1197   2.687   0.643   4.250
   52GIB0   C1B 1198   3.001   0.110   3.650
   52GIB0   C2B 1199   2.967   0.194   3.950
   52GIB0   C3B 1200   2.935   0.157   4.250
   52GIB0   C4B 1201   2.955   0.131   4.550
   52GIB0   C5B 1202   2.918   0.109   4.850
   53GIB0   PO4 1203   4.640   3.129   2.750
   53GIB0    A0 1204   4.674   3.049   2.450
   53GIB0    B0 1205   4.710   3.008   2.150
   53GIB0    C0 1206   4.291   3.051   2.300
   53GIB0   VS0 1207   4.443   3.172   2.300
   53GIB0    A1 1208   4.623   3.073   1.850
   53GIB0    B1 1209   4.580   3.090   1.550
   53GIB0    C2 1210   4.457   3.146   1.700
   53GIB0    D1 1211   4.207   2.999   1.700
   53GIB0   VS1 1212   4.466   3.109   1.700
   53GIB0    A2 1213   4.653   3.096   1.250
   53GIB0    B2 1214   4.596   3.088   0.950
   53GIB0    C2 1215   4.335   3.023   1.100
   53GIB0   VS2 1216   4.470   3.188   1.100
   53GIB0    A3 1217   4.568   3.069   0.650
   53GIB0    B3 1218   4.607   3.150   0.350
   53GIB0    C3 1219   4.321   3.081   0.500
   53GIB0   VS3 1220   4.479   3.120   0.500
   53GIB0   NOH 1221   4.627   3.078   3.050
   53GIB0   GLA 1222   4.884   3.096   3.350
   53GIB0   GLB 1223   4.380   3.072   3.350
   53GIB0   C1A 1224   4.893   3.153   3.650
   53GIB0   C2A 1225   4.888   3.188   3.950
   53GIB0   C3A 1226   4.930   3.141   4.250
   53GIB0   C1B 1227   4.307   3.047   3.650
   53GIB0   C2B 1228   4.294   3.069   3.950
   53GIB0   C3B 1229   4.323   3.106   4.250
   53GIB0   C4B 1230   4.369   3.074   4.550
   53GIB0   C5B 1231   4.371   3.043   4.850
   54GIB0   PO4 1232   3.675   1.340   2.750
   54GIB0    A0 1233   3.782   1.405   2.450
   54GIB0    B0 1234   3.761   1.327   2.150
   54GIB0    C0 1235   3.525   1.182   2.300
   54GIB0   VS0 1236   3.589   1.250   2.300
   54GIB0    A1 1237   3.637   1.359   1.850
   54GIB0    B1 1238   3.711   1.357   1.550
   54GIB0    C2 1239   3.581   1.275   1.700
   54GIB0    D1 1240   3.530   1.045   1.700
   54GIB0   VS1 1241   3.547   1.300   1.700
   54GIB0    A2 1242   3.731   1.409   1.250
   54GIB0    B2 1243   3.729   1.400   0.950
   54GIB0    C2 1244   3.516   1.179   1.100
   54GIB0   VS2 1245   3.516   1.259   1.100
   54GIB0    A3 1246   3.711   1.334   0.650
   54GIB0    B3 1247   3.644   1.374   0.350
   54GIB0    C3 1248   3.562   1.151   0.500
   54GIB0   VS3 1249   3.534   1.243   0.500
   54GIB0   NOH 1250   3.717   1.378   3.050
   54GIB0   GLA 1251   3.847   1.595   3.350
   54GIB0   GLB 1252   3.567   1.136   3.350
   54GIB0   C1A 1253   3.797   1.565   3.650
   54GIB0   C2A 1254   3.819   1.658   3.950
   54GIB0   C3A 1255   3.841   1.568   4.250
   54GIB0   C1B 1256   3.558   1.188   3.650
   54GIB0   C2B 1257   3.550   1.137   3.950
   54GIB0   C3B 1258   3.534   1.117   4.250
   54GIB0   C4B 1259   3.488   1.177   4.550
   54GIB0   C5B 1260   3.579   1.152   4.850
   55POPC   NC3 1261   1.348   3.803   3.050
   55POPC   PO4 1262   1.350   3.845   3.350
   55POPC   GL1 1263   1.288   3.776   3.650
   55POPC   GL2 1264   1.199   3.787   3.650
   55POPC   C1A 1265   1.267   3.777   3.950
   55POPC   D2A 1266   1.252   3.785   4.250
   55POPC   C3A 1267   1.318   3.824   4.550
   55POPC   C4A 1268   1.342   3.833   4.850
   55POPC   C1B 1269   1.066   3.874   3.950
   55POPC   C2B 1270   1.035   3.890   4.250
   55POPC   C3B 1271   1.022   3.832   4.550
   55POPC   C4B 1272   1.064   3.876   4.850
   56POPC   NC3 1273   2.135   0.430   3.050
   56POPC   PO4 1274   2.182   0.427   3.350
   56POPC   GL1 1275   2.098   0.479   3.650
   56POPC   GL2 1276   2.042   0.452   3.650
   56POPC   C1A 1277   2.099   0.472   3.950
   56POPC   D2A 1278   2.099   0.515   4.250
   56POPC   C3A 1279   2.174   0.448   4.550
   56POPC   C4A 1280   2.157   0.451   4.850
   56POPC   C1B 1281   1.897   0.487   3.950
   56POPC   C2B 1282   1.874   0.503   4.250
   56POPC   C3B 1283   1.875   0.551   4.550
   56POPC   C4B 1284   1.894   0.523   4.850
   57POPC   NC3 1285   0.440   2.165   3.050
   57POPC   PO4 1286   0.498   2.128   3.350
   57POPC   GL1 1287   0.487   2.114   3.650
   57POPC   GL2 1288   0.542   2.169   3.650
   57POPC   C1A 1289   0.437   2.141   3.950
   57POPC   D2A 1290   0.513   2.151   4.250
   57POPC   C3A 1291   0.425   2.172   4.550
   57POPC   C4A 1292   0.482   2.123   4.850
   57POPC   C1B 1293   0.736   2.271   3.950
   57POPC   C2B 1294   0.727   2.202   4.250
   57POPC   C3B 1295   0.700   2.241   4.550
   57POPC   C4B 1296   0.735   2.215   4.850
   58POPC   NC3 1297   1.302   4.675   3.050
   58POPC   PO4 1298   1.345   4.652   3.350
   58POPC   GL1 1299   1.313   4.610   3.650
   58POPC   GL2 1300   1.144   4.646   3.650
   58POPC   C1A 1301   1.328   4.678   3.950
   58POPC   D2A 1302   1.303   4.663   4.250
   58POPC   C3A 1303   1.278   4.676   4.550
   58POPC   C4A 1304   1.254   4.614   4.850
   58POPC   C1B 1305   1.115   4.752   3.950
   58POPC   C2B 1306   1.116   4.758   4.250
   58POPC   C3B 1307   1.024   4.724   4.550
   58POPC   C4B 1308   1.112   4.750   4.850
   59POPC   NC3 1309   3.752   2.147   3.050
   59POPC   PO4 1310   3.848   2.143   3.350
   59POPC   GL1 1311   3.750   2.132   3.650
   59POPC   GL2 1312   3.716   2.194   3.650
   59POPC   C1A 1313   3.789   2.143   3.950
   59POPC   D2A 1314   3.791   2.127   4.250
   59POPC   C3A 1315   3.845   2.175   4.550
   59POPC   C4A 1316   3.826   2.180   4.850
   59POPC   C1B 1317   3.613   2.233   3.950
   59POPC   C2B 1318   3.577   2.312   4.250
   59POPC   C3B 1319   3.545   2.239   4.550
   59POPC   C4B 1320   3.555   2.260   4.850
   60POPC   NC3 1321   1.268   1.269   3.050
   60POPC   PO4 1322   1.252   1.281   3.350
   60POPC   GL1 1323   1.251   1.314   3.650
   60POPC   GL2 1324   1.149   1.271   3.650
   60POPC   C1A 1325   1.328   1.257   3.950
   60POPC   D2A 1326   1.313   1.320   4.250
   60POPC   C3A 1327   1.250   1.306   4.550
   60POPC   C4A 1328   1.329   1.338   4.850
   60POPC   C1B 1329   1.056   1.282   3.950
   60POPC   C2B 1330   1.074   1.212   4.250
   60POPC   C3B 1331   1.084   1.212   4.550
   60POPC   C4B 1332   1.090   1.246   4.850
   61POPC   NC3 1333   3.778   4.678   3.050
   61POPC   PO4 1334   3.797   4.634   3.350
   61POPC   GL1 1335   3.761   4.662   3.650
   61POPC   GL2 1336   3.847   4.530   3.650
   61POPC   C1A 1337   3.846   4.616   3.950
   61POPC   D2A 1338   3.813   4.619   4.250
   61POPC   C3A 1339   3.761   4.674   4.550
   61POPC   C4A 1340   3.798   4.590   4.850
   61POPC   C1B 1341   3.982   4.431   3.950
   61POPC   C2B 1342   3.978   4.405   4.250
   61POPC   C3B 1343   3.972   4.414   4.550
   61POPC   C4B 1344   3.917   4.398   4.850
   62POPC   NC3 1345   2.131   4.584   3.050
   62POPC   PO4 1346   2.105   4.607   3.350
   62POPC   GL1 1347   2.093   4.628   3.650
   62POPC   GL2 1348   2.302   4.546   3.650
   62POPC   C1A 1349   2.120   4.658   3.950
   62POPC   D2A 1350   2.109   4.633   4.250
   62POPC   C3A 1351   2.148   4.622   4.550
   62POPC   C4A 1352   2.165   4.683   4.850
   62POPC   C1B 1353   2.346   4.570   3.950
   62POPC   C2B 1354   2.391   4.594   4.250
   62POPC   C3B 1355   2.358   4.523   4.550
   62POPC   C4B 1356   2.388   4.508   4.850
   63POPC   NC3 1357   1.295   0.431   3.050
   63POPC   PO4 1358   1.309   0.493   3.350
   63POPC   GL1 1359   1.286   0.461   3.650
   63POPC   GL2 1360   1.359   0.390   3.650
   63POPC   C1A 1361   1.343   0.430   3.950
   63POPC   D2A 1362   1.330   0.424   4.250
   63POPC   C3A 1363   1.261   0.440   4.550
   63POPC   C4A 1364   1.307   0.450   4.850
   63POPC   C1B 1365   1.517   0.298   3.950
   63POPC   C2B 1366   1.486   0.285   4.250
   63POPC   C3B 1367   1.521   0.269   4.550
   63POPC   C4B 1368   1.520   0.275   4.850
   64POPC   NC3 1369   1.325   2.126   3.050
   64POPC   PO4 1370   1.290   2.137   3.350
   64POPC   GL1 1371   1.312   2.087   3.650
   64POPC   GL2 1372   1.167   2.087   3.650
   64POPC   C1A 1373   1.348   2.092   3.950
   64POPC   D2A 1374   1.313   2.158   4.250
   64POPC   C3A 1375   1.329   2.174   4.550
   64POPC   C4A 1376   1.350   2.130   4.850
   64POPC   C1B 1377   1.154   1.954   3.950
   64POPC   C2B 1378   1.109   1.983   4.250
   64POPC   C3B 1379   1.149   1.936   4.550
   64POPC   C4B 1380   1.090   1.977   4.850
   65POPC   NC3 1381   2.166   1.311   3.050
   65POPC   PO4 1382   2.110   1.298   3.350
   65POPC   GL1 1383   2.089   1.266   3.650
   65POPC   GL2 1384   2.252   1.395   3.650
   65POPC   C1A 1385   2.150   1.313   3.950
   65POPC   D2A 1386   2.107   1.334   4.250
   65POPC   C3A 1387   2.144   1.255   4.550
   65POPC   C4A 1388   2.149   1.312   4.850
   65POPC   C1B 1389   2.268   1.448   3.950
   65POPC   C2B 1390   2.296   1.522   4.250
   65POPC   C3B 1391   2.298   1.450   4.550
   65POPC   C4B 1392   2.342   1.433   4.850
   66POPC   NC3 1393   4.655   0.509   3.050
   66POPC   PO4 1394   4.610   0.432   3.350
   66POPC   GL1 1395   4.680   0.430   3.650
   66POPC   GL2 1396   4.662   0.586   3.650
   66POPC   C1A 1397   4.646   0.429   3.950
   66POPC   D2A 1398   4.670   0.510   4.250
   66POPC   C3A 1399   4.593   0.469   4.550
   66POPC   C4A 1400   4.648   0.478   4.850
   66POPC   C1B 1401   4.762   0.685   3.950
   66POPC   C2B 1402   4.784   0.694   4.250
   66POPC   C3B 1403   4.798   0.664   4.550
   66POPC   C4B 1404   4.739   0.706   4.850
   67POPC   NC3 1405   2.973   4.596   3.050
   67POPC   PO4 1406   2.960   4.601   3.350
   67POPC   GL1 1407   2.960   4.600   3.650
   67POPC   GL2 1408   2.848   4.624   3.650
   67POPC   C1A 1409   2.934   4.584   3.950
   67POPC   D2A 1410   2.957   4.605   4.250
   67POPC   C3A 1411   2.976   4.649   4.550
   67POPC   C4A 1412   2.986   4.667   4.850
   67POPC   C1B 1413   2.715   4.616   3.950
   67POPC   C2B 1414   2.703   4.645   4.250
   67POPC   C3B 1415   2.762   4.596   4.550
   67POPC   C4B 1416   2.759   4.622   4.850
   68POPC   NC3 1417   3.758   3.789   3.050
   68POPC   PO4 1418   3.845   3.753   3.350
   68POPC   GL1 1419   3.816   3.824   3.650
   68POPC   GL2 1420   3.839   3.905   3.650
   68POPC   C1A 1421   3.768   3.808   3.950
   68POPC   D2A 1422   3.810   3.792   4.250
   68POPC   C3A 1423   3.785   3.832   4.550
   68POPC   C4A 1424   3.830   3.832   4.850
   68POPC   C1B 1425   3.846   4.019   3.950
   68POPC   C2B 1426   3.893   4.071   4.250
   68POPC   C3B 1427   3.921   3.990   4.550
   68POPC   C4B 1428   3.877   3.990   4.850
   69POPC   NC3 1429   3.833   3.003   3.050
   69POPC   PO4 1430   3.791   2.993   3.350
   69POPC   GL1 1431   3.818   2.969   3.650
   69POPC   GL2 1432   3.880   3.043   3.650
   69POPC   C1A 1433   3.758   2.945   3.950
   69POPC   D2A 1434   3.824   2.950   4.250
   69POPC   C3A 1435   3.764   2.969   4.550
   69POPC   C4A 1436   3.778   2.947   4.850
   69POPC   C1B 1437   3.991   3.107   3.950
   69POPC   C2B 1438   4.055   3.087   4.250
   69POPC   C3B 1439   4.026   3.018   4.550
   69POPC   C4B 1440   4.038   3.047   4.850
   70POPC   NC3 1441   0.489   4.597   3.050
   70POPC   PO4 1442   0.511   4.663   3.350
   70POPC   GL1 1443   0.420   4.596   3.650
   70POPC   GL2 1444   0.519   4.724   3.650
   70POPC   C1A 1445   0.503   4.664   3.950
   70POPC   D2A 1446   0.461   4.670   4.250
   70POPC   C3A 1447   0.453   4.606   4.550
   70POPC   C4A 1448   0.512   4.638   4.850
   70POPC   C1B 1449   0.688   4.767   3.950
   70POPC   C2B 1450   0.656   4.810   4.250
   70POPC   C3B 1451   0.713   4.778   4.550
   70POPC   C4B 1452   0.640   4.744   4.850
   71POPC   NC3 1453   1.306   2.924   3.050
   71POPC   PO4 1454   1.326   2.936   3.350
   71POPC   GL1 1455   1.280   2.999   3.650
   71POPC   GL2 1456   1.221   2.874   3.650
   71POPC   C1A 1457   1.346   2.989   3.950
   71POPC   D2A 1458   1.301   2.964   4.250
   71POPC   C3A 1459   1.295   2.990   4.550
   71POPC   C4A 1460   1.305   3.013   4.850
   71POPC   C1B 1461   1.140   2.809   3.950
   71POPC   C2B 1462   1.148   2.796   4.250
   71POPC   C3B 1463   1.124   2.793   4.550
   71POPC   C4B 1464   1.123   2.798   4.850
   72POPC   NC3 1465   0.426   3.778   3.050
   72POPC   PO4 1466   0.491   3.807   3.350
   72POPC   GL1 1467   0.502   3.812   3.650
   72POPC   GL2 1468   0.455   3.872   3.650
   72POPC   C1A 1469   0.445   3.838   3.950
   72POPC   D2A 1470   0.488   3.764   4.250
   72POPC   C3A 1471   0.478   3.841   4.550
   72POPC   C4A 1472   0.419   3.761   4.850
   72POPC   C1B 1473   0.497   4.023   3.950
   72POPC   C2B 1474   0.496   4.049   4.250
   72POPC   C3B 1475   0.541   4.022   4.550
   72POPC   C4B 1476   0.497   4.014   4.850
   73W        W 1477   2.507   4.789   8.355
   74W        W 1478   4.810   3.890   9.296
   75W        W 1479   3.900   3.908   0.717
   76W        W 1480   4.338   2.051   7.896
   77W        W 1481   1.598   2.046   0.739
   78W        W 1482   0.711   2.047   1.694
   79W        W 1483   1.174   3.885   1.224
   80W        W 1484   3.889   2.507   0.721
   81W        W 1485   3.897   2.515   1.231
   82W        W 1486   3.451   2.516   9.291
   83W        W 1487   3.893   3.450   1.233
   84W        W 1488   3.876   2.090   2.171
   85W        W 1489   2.511   1.176   1.708
   86W        W 1490   3.410   4.360   0.263
   87W        W 1491   2.992   4.804   9.311
   88W        W 1492   2.090   1.596   0.728
   89W        W 1493   1.154   2.538   1.213
   90W        W 1494   1.161   2.058   2.175
   91W        W 1495   0.706   4.328   0.244
   92W        W 1496   2.998   2.525   7.422
   93W        W 1497   2.523   2.981   8.336
   94W        W 1498   2.061   1.177   0.729
   95W        W 1499   4.802   2.967   7.871
   96W        W 1500   1.597   4.812   0.738
   97W        W 1501   0.269   2.527   8.366
   98W        W 1502   2.535   3.442   8.346
   99W        W 1503   2.965   2.987   8.344
  100W        W 1504   2.540   4.349   9.296
  101W        W 1505   2.542   3.445   9.326
  102W        W 1506   2.514   2.529   6.914
  103W        W 1507   1.622   4.809   1.196
  104W        W 1508   4.799   3.886   9.786
  105W        W 1509   2.070   0.715   1.201
  106W        W 1510   2.088   4.805   2.160
  107W        W 1511   2.505   3.908   8.367
  108W        W 1512   4.351   2.527   7.897
  109W        W 1513   1.150   1.141   1.209
  110W        W 1514   2.058   4.804   0.724
  111W        W 1515   2.987   3.444   9.322
  112W        W 1516   4.351   2.973   9.286
  113W        W 1517   3.897   2.514   2.158
  114W        W 1518   1.163   2.534   0.723
  115W        W 1519   3.879   2.073   7.895
  116W        W 1520   0.721   4.333   9.764
  117W        W 1521   4.350   2.978   8.339
  118W        W 1522   4.801   2.062   9.770
  119W        W 1523   2.993   2.965   9.763
  120W        W 1524   0.257   4.773   9.771
  121W        W 1525   2.527   4.329   7.423
  122W        W 1526   2.996   2.527   8.843
  123W        W 1527   1.144   2.530   2.170
  124W        W 1528   3.908   2.983   8.350
  125W        W 1529   0.243   2.088   0.244
  126W        W 1530   2.964   4.324   8.824
  127W        W 1531   0.246   2.538   9.802
  128W        W 1532   2.504   2.502   9.795
  129W        W 1533   3.434   2.088   9.305
  130W        W 1534   3.899   2.058   9.772
  131W        W 1535   2.087   1.175   1.699
  132W        W 1536   2.076   2.993   8.814
  133W        W 1537   4.327   2.531   9.800
  134W        W 1538   1.139   2.973   2.187
  135W        W 1539   1.138   1.142   1.685
  136W        W 1540   4.800   0.704   0.283
  137W        W 1541   4.333   2.985   7.893
  138W        W 1542   1.625   1.141   0.750
  139W        W 1543   1.614   0.236   9.296
  140W        W 1544   3.419   2.058   8.833
  141W        W 1545   1.139   3.431   2.169
  142W        W 1546   2.990   2.078   8.843
  143W        W 1547   2.527   4.344   0.285
  144W        W 1548   1.182   4.811   1.210
  145W        W 1549   2.062   2.979   7.884
  146W        W 1550   0.699   4.336   1.708
  147W        W 1551   2.529   3.886   9.319
  148W        W 1552   2.964   1.635   8.342
  149W        W 1553   2.984   1.604   7.905
  150W        W 1554   2.064   1.600   1.193
  151W        W 1555   0.240   4.348   8.343
  152W        W 1556   3.441   2.510   8.376
  153W        W 1557   4.343   2.081   9.327
  154W        W 1558   0.247   2.959   8.346
  155W        W 1559   2.071   3.869   9.792
  156W        W 1560   4.783   3.430   7.859
  157W        W 1561   0.260   2.995   9.798
  158W        W 1562   3.867   2.970   9.762
  159W        W 1563   2.504   4.359   9.800
  160W        W 1564   4.789   2.977   9.318
  161W        W 1565   2.965   4.346   7.884
  162W        W 1566   2.974   3.428   8.375
  163W        W 1567   2.500   1.168   1.204
  164W        W 1568   2.962   2.518   8.340
  165W        W 1569   1.595   0.690   9.771
  166W        W 1570   1.146   2.981   0.247
  167W        W 1571   1.153   2.956   0.728
  168W        W 1572   2.529   2.972   8.829
  169W        W 1573   0.697   3.895   2.157
  170W        W 1574   2.504   2.520   8.373
  171W        W 1575   4.339   2.978   9.793
  172W        W 1576   1.161   1.609   1.203
  173W        W 1577   1.143   2.087   1.193
  174W        W 1578   2.074   1.158   2.157
  175W        W 1579   3.908   3.453   0.733
  176W        W 1580   2.972   2.509   9.301
  177W        W 1581   1.602   1.616   0.277
  178W        W 1582   0.714   3.882   0.731
  179W        W 1583   1.623   2.055   1.701
  180W        W 1584   0.271   2.540   8.853
  181W        W 1585   1.618   0.247   8.840
  182W        W 1586   2.532   1.161   0.265
  183W        W 1587   1.626   0.704   2.177
  184W        W 1588   1.152   3.450   1.685
  185W        W 1589   2.511   2.507   7.397
  186W        W 1590   1.151   1.181   0.732
  187W        W 1591   2.533   3.447   7.878
  188W        W 1592   2.060   0.686   0.749
  189W        W 1593   2.980   3.885   9.298
  190W        W 1594   1.156   3.873   2.180
  191W        W 1595   2.507   3.892   8.812
  192W        W 1596   1.160   1.139   2.163
  193W        W 1597   1.627   0.249   0.736
  194W        W 1598   1.617   2.088   2.168
  195W        W 1599   2.961   3.413   8.847
  196W        W 1600   0.269   2.508   7.893
  197W        W 1601   4.814   3.411   9.801
  198W        W 1602   3.908   2.503   8.855
  199W        W 1603   0.688   4.782   2.150
  200W        W 1604   4.816   3.869   7.888
  201W        W 1605   2.536   3.869   9.771
  202W        W 1606   1.603   1.611   0.758
  203W        W 1607   2.513   2.964   9.317
  204W        W 1608   2.966   3.869   7.867
  205W        W 1609   2.067   4.774   0.255
  206W        W 1610   1.605   1.168   1.679
  207W        W 1611   3.886   2.962   7.866
  208W        W 1612   1.167   3.434   2.647
  209W        W 1613   1.180   3.409   0.739
  210W        W 1614   3.418   2.507   8.818
  211W        W 1615   3.902   3.867   1.191
  212W        W 1616   2.047   2.986   8.341
  213W        W 1617   3.880   4.332   1.234
  214W        W 1618   1.142   3.892   0.280
  215W        W 1619   1.611   4.804   0.258
  216W        W 1620   4.817   2.504   9.328
  217W        W 1621   1.631   1.624   1.693
  218W        W 1622   1.156   4.346   2.186
  219W        W 1623   4.789   3.445   8.823
  220W        W 1624   0.269   2.075   2.169
  221W        W 1625   2.975   4.339   8.344
  222W        W 1626   3.433   4.801   0.245
  223W        W 1627   1.592   0.268   0.240
  224W        W 1628   2.984   2.047   7.861
  225W        W 1629   4.797   2.085   7.862
  226W        W 1630   0.688   4.320   7.862
  227W        W 1631   0.271   3.868   2.168
  228W        W 1632   2.056   0.717   0.272
  229W        W 1633   1.628   1.147   2.154
  230W        W 1634   4.809   2.507   8.367
  231W        W 1635   1.608   0.724   8.822
  232W        W 1636   4.780   2.087   8.846
  233W        W 1637   1.141   1.604   0.250
  234W        W 1638   1.603   0.228   8.360
  235W        W 1639   1.149   4.791   0.259
  236W        W 1640   0.715   2.538   7.416
  237W        W 1641   2.963   4.813   9.769
  238W        W 1642   3.446   2.069   7.890
  239W        W 1643   2.959   2.065   9.790
  240W        W 1644   0.271   3.896   0.743
  241W        W 1645   0.258   4.325   9.310
  242W        W 1646   1.146   4.332   0.736
  243W        W 1647   0.262   2.973   7.871
  244W        W 1648   4.811   2.516   7.386
  245W        W 1649   2.533   4.350   7.867
  246W        W 1650   2.054   1.635   1.676
  247W        W 1651   1.178   3.869   1.711
  248W        W 1652   2.513   2.978   9.786
  249W        W 1653   4.782   2.982   8.856
  250W        W 1654   2.070   0.685   2.177
  251W        W 1655   3.444   2.072   8.349
  252W        W 1656   2.057   0.229   0.733
  253W        W 1657   1.631   2.078   0.253
  254W        W 1658   2.984   3.427   7.871
  255W        W 1659   3.890   2.523   9.298
  256W        W 1660   1.156   2.055   9.793
  257W        W 1661   3.442   2.518   7.897
  258W        W 1662   2.542   3.413   8.829
  259W        W 1663   2.077   3.881   7.904
  260W        W 1664   4.801   2.064   9.312
  261W        W 1665   0.272   4.784   7.898
  262W        W 1666   3.883   2.081   8.339
  263W        W 1667   1.150   4.809   1.703
  264W        W 1668   2.981   2.079   8.371
  265W        W 1669   2.056   3.908   8.820
  266W        W 1670   1.592   0.703   7.861
  267W        W 1671   3.444   2.968   8.350
  268W        W 1672   3.433   4.349   1.714
  269W        W 1673   0.712   4.323   1.216
  270W        W 1674   2.959   1.138   9.326
  271W        W 1675   3.428   2.972   8.857
  272W        W 1676   3.891   2.520   8.350
  273W        W 1677   2.988   3.864   9.765
  274W        W 1678   0.718   4.780   1.232
  275W        W 1679   2.082   4.808   9.787
  276W        W 1680   1.140   2.087   8.838
  277W        W 1681   1.601   1.635   1.212
  278W        W 1682   1.626   0.267   9.791
  279W        W 1683   1.624   4.795   1.710
  280W        W 1684   3.443   2.956   9.306
  281W        W 1685   3.893   2.544   9.765
  282W        W 1686   2.522   4.324   8.346
  283W        W 1687   3.878   4.339   2.175
  284W        W 1688   2.966   4.324   9.787
  285W        W 1689   2.962   4.808   7.867
  286W        W 1690   2.053   1.607   0.241
  287W        W 1691   1.146   2.993   1.235
  288W        W 1692   2.525   2.972   7.860
  289W        W 1693   3.905   3.904   1.703
  290W        W 1694   2.531   4.785   8.833
  291W        W 1695   3.446   4.794   2.175
  292W        W 1696   1.142   4.807   2.174
  293W        W 1697   1.604   2.091   1.227
  294W        W 1698   0.258   2.083   9.299
  295W        W 1699   2.975   4.331   9.323
  296W        W 1700   0.686   4.356   2.151
  297W        W 1701   1.620   0.703   1.211
  298W        W 1702   2.958   2.962   7.898
  299W        W 1703   2.993   2.982   8.818
  300W        W 1704   2.076   4.792   1.237
  301W        W 1705   0.725   2.522   2.146
  302W        W 1706   2.960   2.513   9.800
  303W        W 1707   3.420   2.970   7.895
  304W        W 1708   4.809   3.892   8.832
  305W        W 1709   1.632   1.622   2.647
  306W        W 1710   0.696   4.811   1.679
  307W        W 1711   0.263   2.956   9.302
  308W        W 1712   1.600   0.252   2.175
  309W        W 1713   1.181   2.989   1.692
  310W        W 1714   0.233   4.790   9.296
  311W        W 1715   1.595   0.240   1.667
  312W        W 1716   4.804   3.908   8.380
  313W        W 1717   2.967   2.983   9.291
  314W        W 1718   0.248   4.816   8.856
  315W        W 1719   0.703   2.079   0.253
  316W        W 1720   1.181   2.090   9.308
  317W        W 1721   2.979   4.810   8.812
  318W        W 1722   1.628   0.716   2.635
  319W        W 1723   1.147   1.630   2.157
  320W        W 1724   0.719   2.051   2.177
  321W        W 1725   4.797   2.522   8.834
  322W        W 1726   3.448   4.361   0.755
  323W        W 1727   1.137   1.618   0.740
  324W        W 1728   4.328   2.504   8.817
  325W        W 1729   2.529   4.799   7.877
  326W        W 1730   2.083   0.696   1.683
  327W        W 1731   3.875   4.327   0.277
  328W        W 1732   4.776   2.519   7.895
  329W        W 1733   0.710   4.786   0.284
  330W        W 1734   3.415   3.909   1.217
  331W        W 1735   3.440   2.048   7.384
  332W        W 1736   3.890   3.878   0.247
  333W        W 1737   2.054   0.243   2.156
  334W        W 1738   0.718   2.537   1.225
  335W        W 1739   1.181   4.798   0.744
  336W        W 1740   1.604   1.164   0.257
  337W        W 1741   1.138   2.081   1.684
  338W        W 1742   2.065   3.431   7.863
  339W        W 1743   2.524   2.970   7.414
  340W        W 1744   3.876   4.344   0.719
  341W        W 1745   3.418   3.895   0.727
  342W        W 1746   2.504   2.518   8.812
  343W        W 1747   0.725   4.326   9.316
  344W        W 1748   2.082   3.450   7.401
  345W        W 1749   1.624   0.714   9.305
  346W        W 1750   1.612   0.709   8.350
  347W        W 1751   2.081   1.177   1.206
  348W        W 1752   1.623   0.271   1.192
  349W        W 1753   3.452   4.795   1.192
  350W        W 1754   4.336   2.998   8.814
  351W        W 1755   0.689   3.893   1.194
  352W        W 1756   1.150   3.439   0.256
  353W        W 1757   2.512   3.432   9.793
  354W        W 1758   3.442   4.359   8.366
  355W        W 1759   1.181   2.074   7.863
  356W        W 1760   4.788   0.682   2.148
  357W        W 1761   3.444   4.346   2.190
  358W        W 1762   4.801   0.712   1.704
  359W        W 1763   0.690   3.869   0.282
  360W        W 1764   3.870   2.989   9.297
  361W        W 1765   3.419   3.881   0.278
  362W        W 1766   4.797   2.985   9.802
  363W        W 1767   2.512   3.870   7.410
  364W        W 1768   2.058   0.251   0.284
  365W        W 1769   3.869   3.438   0.283
  366W        W 1770   2.506   4.335   1.668
  367W        W 1771   3.888   2.086   8.846
  368W        W 1772   2.509   2.545   9.311
  369W        W 1773   1.608   1.144   1.207
  370W        W 1774   1.180   3.870   0.738
  371W        W 1775   1.618   0.691   0.256
  372W        W 1776   2.066   1.139   0.285
  373W        W 1777   3.880   4.340   1.685
  374W        W 1778   3.898   2.540   0.260
  375W        W 1779   4.780   0.722   1.193
  376W        W 1780   3.884   2.539   7.894
  377W        W 1781   0.249   3.881   1.672
  378W        W 1782   2.526   1.600   0.246
  379W        W 1783   2.086   0.238   1.204
  380W        W 1784   0.269   3.890   0.260
  381W        W 1785   0.246   3.908   1.208
  382W        W 1786   0.239   4.336   8.838
  383W        W 1787   2.968   1.161   8.843
  384W        W 1788   3.905   3.881   2.188
  385W        W 1789   4.798   2.962   8.337
  386W        W 1790   0.234   2.542   7.397
  387W        W 1791   1.180   2.085   0.747
  388W        W 1792   0.717   4.328   0.725
  389W        W 1793   2.974   1.608   9.767
  390W        W 1794   0.231   2.540   9.325
  391W        W 1795   1.591   0.703   1.678
  392W        W 1796   1.171   3.418   1.219
  393W        W 1797   2.080   2.990   9.763
  394W        W 1798   3.423   4.335   1.213
  395W        W 1799   2.540   3.887   7.858
  396W        W 1800   2.057   3.874   8.367
  397W        W 1801   3.419   2.990   9.765
  398W        W 1802   2.987   2.522   7.883
  399W        W 1803   4.326   2.529   7.427
  400W        W 1804   0.269   4.344   9.787
  401W        W 1805   1.178   1.592   1.706
  402W        W 1806   2.517   4.802   7.414
  403W        W 1807   2.971   4.807   8.343
  404W        W 1808   2.075   0.247   1.703
  405W        W 1809   4.818   3.415   8.375
  406W        W 1810   2.079   3.419   8.810
  407W        W 1811   3.432   2.544   9.768
  408W        W 1812   2.994   3.874   8.356
  409W        W 1813   1.144   2.534   0.247
  410W        W 1814   4.780   3.429   9.332
  411W        W 1815   1.626   4.319   2.639
  412W        W 1816   3.000   2.069   9.292
  413W        W 1817   3.892   2.994   8.820
  414W        W 1818   1.155   2.054   0.240
  415W        W 1819   2.517   1.143   0.743
  416W        W 1820   2.050   3.874   9.320
  417W        W 1821   2.531   4.360   8.814
  418W        W 1822   1.605   4.817   2.175
  419W        W 1823   4.360   2.514   8.342
  420W        W 1824   2.996   3.451   9.772
  421W        W 1825   2.987   1.594   8.857
  422W        W 1826   3.440   2.069   9.791
  423W        W 1827   1.173   1.174   0.267
  424W        W 1828   2.994   1.147   9.800
  425W        W 1829   2.089   2.995   9.295
  426W        W 1830   1.603   0.706   0.724
  427W        W 1831   2.965   1.173   7.875
  428W        W 1832   2.959   3.874   8.836
  429W        W 1833   0.264   2.074   9.781
  430W        W 1834   1.164   2.540   1.706
  431W        W 1835   1.179   4.343   1.681
  432W        W 1836   3.417   4.357   2.643
  433W        W 1837   4.812   2.514   9.792
  434W        W 1838   1.153   4.321   0.239
  435W        W 1839   3.452   4.804   0.734
  436W        W 1840   2.088   4.809   1.697
  437W        W 1841   3.409   4.323   9.791
  438W        W 1842   3.882   2.083   9.315
  439W        W 1843   3.886   4.802   0.267
  440W        W 1844   0.723   3.901   1.667
  441W        W 1845   1.608   0.232   7.873
  442W        W 1846   2.956   1.631   9.313
  443W        W 1847   1.613   1.635   2.175
  444W        W 1848   2.528   4.798   9.788
  445W        W 1849   4.348   2.500   9.315
  446W        W 1850   0.713   2.071   0.740
  447W        W 1851   1.155   4.352   1.221
  448W        W 1852   0.244   4.814   8.376
  449W        W 1853   0.234   2.986   8.835
  450W        W 1854   2.539   4.798   9.327
   5.00000   5.00000  10.00000   0.00000   0.00000   0.00000   0.00000   0.00000   0.00000

