INSANE! Membrane UpperLeaflet>GIB0:POPC=50.0:50.0 LowerLeaflet>GIB0:POPC=50.0:50.0
 1854
    1GIB0   PO4    1   3.936   4.476   6.093 -0.0766  0.1183 -0.4574
    1GIB0    A0    2   4.318   4.367   6.133 -0.2755  0.0294 -0.1463
    1GIB0    B0    3   4.147   4.052   6.218  0.0869 -0.1734 -0.1506
    1GIB0    C0    4   4.527   4.091   6.278  0.0244  0.3091 -0.0323
    1GIB0   VS0    5   4.331   4.170   6.209 -0.0547  0.0551 -0.1097
    1GIB0    A1    6   4.152   4.354   6.454 -0.1638  0.0687  0.1981
    1GIB0    B1    7   4.352   4.288   6.739  0.2001 -0.0089 -0.0682
    1GIB0    C1    8   4.250   4.033   6.529  0.2763  0.0909 -0.2287
    1GIB0    D1    9   4.226   3.855   6.644  0.5921 -0.0589 -0.3853
    1GIB0   VS1   10   4.251   4.225   6.574  0.1042  0.0502 -0.0329
    1GIB0    A2   11   4.525   4.053   6.966 -0.1496  0.0680  0.1198
    1GIB0    B2   12   4.855   4.131   7.136 -0.1744 -0.0895  0.2419
    1GIB0    C2   13   4.886   4.283   6.772 -0.1697  0.3655  0.4259
    1GIB0   VS2   14   4.755   4.156   6.958 -0.1646  0.1147  0.2625
    1GIB0    A3   15   5.108   4.273   7.239 -0.0334  0.3321  0.1870
    1GIB0    B3   16   5.224   4.436   7.029  0.0939 -0.0139 -0.0202
    1GIB0    C3   17   5.334   4.144   6.922 -0.3639 -0.2713  0.1821
    1GIB0   VS3   18   5.222   4.284   7.063 -0.1011  0.0156  0.1163
    1GIB0   NOH   19   3.996   4.704   5.702 -0.0692 -0.1305  0.5495
    1GIB0   GLA   20   4.243   4.741   5.551  0.2120 -0.0754 -0.3008
    1GIB0   GLB   21   3.834   4.425   5.632  0.2115 -0.4247  0.1182
    1GIB0   C1A   22   4.338   4.796   5.148  0.2073  0.1110 -0.1199
    1GIB0   C2A   23   4.342   5.124   4.776 -0.1972 -0.0434 -0.2531
    1GIB0   C3A   24   4.290   5.553   4.525 -0.1609  0.1490 -0.0617
    1GIB0   C1B   25   3.932   4.399   5.148  0.1791  0.1217  0.2884
    1GIB0   C2B   26   3.807   4.335   4.686 -0.0575  0.3989 -0.2626
    1GIB0   C3B   27   3.594   4.143   4.286 -0.1500  0.0987  0.1860
    1GIB0   C4B   28   3.482   4.492   3.983 -0.2215 -0.0767  0.0691
    1GIB0   C5B   29   3.117   4.489   3.696  0.0097 -0.0534 -0.1933
    1GIB0   PO4   30   0.387   0.366   6.222 -0.0175 -0.0080 -0.2421
    1GIB0    A0   31   0.707   0.428   6.091  0.0328 -0.0908 -0.2431
    1GIB0    B0   32   0.782   0.151   6.323  0.0755  0.1283  0.0096
    1GIB0    C0   33   1.049   0.275   6.074  0.0747 -0.0197 -0.0661
    1GIB0   VS0   34   0.846   0.284   6.163  0.0610  0.0059 -0.0999
    1GIB0    A1   35   0.795   0.494   6.466 -0.0999 -0.1190 -0.3984
    1GIB0    B1   36   1.071   0.523   6.686 -0.2090  0.4257 -0.3169
    1GIB0    C1   37   0.956   0.214   6.580  0.1446  0.1746  0.0047
    1GIB0    D1   38   0.992   0.070   6.734  0.2323  0.3923  0.1928
    1GIB0   VS1   39   0.940   0.410   6.577 -0.0548  0.1604 -0.2369
    1GIB0    A2   40   1.318   0.347   6.886  0.1236 -0.1351 -0.1225
    1GIB0    B2   41   1.414   0.491   7.224 -0.0701 -0.2041 -0.0366
    1GIB0    C2   42   1.233   0.786   7.030  0.1069 -0.1425 -0.1097
    1GIB0   VS2   43   1.322   0.541   7.046  0.0535 -0.1606 -0.0896
    1GIB0    A3   44   1.546   0.432   7.495 -0.2925  0.1179 -0.0060
    1GIB0    B3   45   1.475   0.176   7.611  0.1723  0.0372  0.1205
    1GIB0    C3   46   1.218   0.348   7.725  0.0670 -0.2823  0.3795
    1GIB0   VS3   47   1.413   0.318   7.610 -0.0177 -0.0424  0.1646
    1GIB0   NOH   48   0.234   0.544   5.780 -0.1084 -0.1469 -0.0589
    1GIB0   GLA   49   0.149   0.518   5.504 -0.0530  0.0521  0.1094
    1GIB0   GLB   50   0.496   0.708   5.846  0.0704 -0.2244  0.2670
    1GIB0   C1A   51   0.281   0.542   5.053  0.1211 -0.1671 -0.0937
    1GIB0   C2A   52   0.378   0.587   4.568 -0.0814 -0.1322  0.1865
    1GIB0   C3A   53   0.457   0.672   4.061  0.1484  0.1307  0.0582
    1GIB0   C1B   54   0.423   0.915   5.409  0.1031 -0.1420 -0.1184
    1GIB0   C2B   55   0.625   0.996   4.951 -0.2194 -0.2320  0.1362
    1GIB0   C3B   56   0.892   0.950   4.569  0.1040  0.3632  0.0837
    1GIB0   C4B   57   0.945   0.771   4.083 -0.0214 -0.2047  0.0702
    1GIB0   C5B   58   0.753   0.770   3.657  0.0298  0.1377  0.1231
    1GIB0   PO4   59   0.329   1.564   6.320 -0.0280 -0.1103  0.0574
    1GIB0    A0   60   0.590   1.427   6.315  0.1048  0.0333  0.2354
    1GIB0    B0   61   0.473   1.249   6.615 -0.2064 -0.1444  0.0146
    1GIB0    C0   62   0.842   1.223   6.503 -0.0974 -0.1096  0.3535
    1GIB0   VS0   63   0.635   1.300   6.478 -0.0663 -0.0736  0.2012
    1GIB0    A1   64   0.492   1.602   6.771  0.0230  0.2217  0.1463
    1GIB0    B1   65   0.694   1.583   7.062 -0.2139 -0.0190  0.2985
    1GIB0    C1   66   0.562   1.298   6.915 -0.3440  0.1255  0.1308
    1GIB0    D1   67   0.526   1.153   7.066 -0.5838  0.1180  0.0704
    1GIB0   VS1   68   0.583   1.494   6.916 -0.1783  0.1094  0.1918
    1GIB0    A2   69   0.867   1.499   7.345  0.0009 -0.0022  0.4292
    1GIB0    B2   70   0.859   1.766   7.615 -0.0617  0.2995  0.1365
    1GIB0    C2   71   0.799   1.959   7.275  0.0585 -0.0679 -0.0988
    1GIB0   VS2   72   0.842   1.742   7.411 -0.0008  0.0765  0.1556
    1GIB0    A3   73   0.917   1.967   7.844 -0.0581 -0.0581 -0.1651
    1GIB0    B3   74   0.778   1.859   8.074  0.0759 -0.0993 -0.1027
    1GIB0    C3   75   0.514   1.981   7.919 -0.0080 -0.0098  0.1058
    1GIB0   VS3   76   0.736   1.936   7.946  0.0033 -0.0557 -0.0540
    1GIB0   NOH   77   0.473   1.732   5.902 -0.0129 -0.1122  0.2694
    1GIB0   GLA   78   0.319   1.668   5.650 -0.3003  0.3600  0.0472
    1GIB0   GLB   79   0.726   1.557   5.905  0.1315 -0.2188  0.1993
    1GIB0   C1A   80   0.174   1.350   5.460 -0.0687  0.1871  0.0505
    1GIB0   C2A   81   0.033   1.373   5.071  0.4167 -0.2588  0.0521
    1GIB0   C3A   82  -0.269   1.522   4.702 -0.0710  0.1175 -0.0782
    1GIB0   C1B   83   0.711   1.359   5.427 -0.2639 -0.2242 -0.2447
    1GIB0   C2B   84   0.928   1.387   5.036  0.0005 -0.1873 -0.0524
    1GIB0   C3B   85   1.114   1.379   4.531 -0.2102  0.0281 -0.1253
    1GIB0   C4B   86   1.127   1.222   4.139  0.2317 -0.2852  0.1726
    1GIB0   C5B   87   1.173   1.090   3.723  0.0673  0.0028  0.4341
    1GIB0   PO4   88   3.239   0.596   5.930  0.2753 -0.2132  0.0287
    1GIB0    A0   89   3.194   0.848   5.675  0.0567 -0.0951  0.3947
    1GIB0    B0   90   3.370   1.055   5.925 -0.0399  0.1149  0.2913
    1GIB0    C0   91   3.302   1.191   5.570 -0.1248 -0.0868  0.2287
    1GIB0   VS0   92   3.289   1.031   5.723 -0.0360 -0.0223  0.3049
    1GIB0    A1   93   3.023   1.044   6.118  0.1540  0.1130 -0.0050
    1GIB0    B1   94   3.025   1.364   6.269 -0.0217  0.2363 -0.2560
    1GIB0    C1   95   3.320   1.207   6.179  0.0569  0.4347 -0.3518
    1GIB0    D1   96   3.474   1.266   6.314  0.1074  0.6812 -0.5109
    1GIB0   VS1   97   3.123   1.205   6.189  0.0630  0.2613 -0.2043
    1GIB0    A2   98   3.029   1.726   6.255 -0.2129  0.4049  0.2836
    1GIB0    B2   99   3.332   1.796   6.473  0.1049  0.0187 -0.0181
    1GIB0    C2  100   3.136   1.504   6.655  0.2078 -0.0989 -0.0948
    1GIB0   VS2  101   3.166   1.676   6.461  0.0332  0.1082  0.0569
    1GIB0    A3  102   3.517   1.818   6.734 -0.1798  0.3221 -0.1597
    1GIB0    B3  103   3.442   1.649   6.957 -0.3339 -0.0530 -0.4830
    1GIB0    C3  104   3.176   1.844   6.961 -0.0587  0.3364  0.0224
    1GIB0   VS3  105   3.378   1.770   6.884 -0.1908  0.2019 -0.2068
    1GIB0   NOH  106   3.214   0.297   5.551  0.0781 -0.6856  0.0089
    1GIB0   GLA  107   3.231   0.469   5.328 -0.2064 -0.0861  0.1215
    1GIB0   GLB  108   3.051   0.065   5.494  0.2746  0.1793 -0.2917
    1GIB0   C1A  109   3.380   0.612   4.910 -0.1669 -0.2354 -0.0146
    1GIB0   C2A  110   3.385   0.812   4.472 -0.1494  0.4816  0.0125
    1GIB0   C3A  111   3.089   1.160   4.385 -0.0725  0.0263  0.0126
    1GIB0   C1B  112   2.952   0.149   5.018 -0.1827 -0.0188  0.0329
    1GIB0   C2B  113   3.052   0.322   4.595  0.3232 -0.0936 -0.0420
    1GIB0   C3B  114   3.030   0.622   4.180  0.2750 -0.1689 -0.2558
    1GIB0   C4B  115   2.825   0.746   3.668  0.0859 -0.0618 -0.0969
    1GIB0   C5B  116   2.898   0.680   3.147 -0.0139  0.1579  0.0313
    1GIB0   PO4  117   1.831   0.397   6.163  0.1444 -0.1481 -0.0469
    1GIB0    A0  118   1.950   0.088   6.130 -0.1758  0.1175  0.0029
    1GIB0    B0  119   1.736   0.022   6.423  0.0480  0.1843  0.1837
    1GIB0    C0  120   1.931  -0.265   6.254  0.1670  0.1973  0.2972
    1GIB0   VS0  121   1.873  -0.052   6.269  0.0131  0.1664  0.1613
    1GIB0    A1  122   2.062   0.167   6.493 -0.0999 -0.1302 -0.2940
    1GIB0    B1  123   2.244  -0.082   6.669 -0.0991  0.0153 -0.0860
    1GIB0    C1  124   1.898  -0.078   6.669 -0.1074 -0.2343 -0.4439
    1GIB0    D1  125   1.828  -0.157   6.854 -0.2420 -0.2682 -0.5078
    1GIB0   VS1  126   2.068   0.002   6.610 -0.1021 -0.1164 -0.2746
    1GIB0    A2  127   2.332  -0.386   6.792  0.2497  0.0578  0.1669
    1GIB0    B2  128   2.696  -0.408   6.899  0.2996  0.3740  0.0722
    1GIB0    C2  129   2.687  -0.137   6.610  0.0871 -0.0906 -0.3720
    1GIB0   VS2  130   2.571  -0.311   6.767  0.2121  0.1137 -0.0443
    1GIB0    A3  131   2.995  -0.503   7.007 -0.1302  0.0573  0.0784
    1GIB0    B3  132   2.989  -0.448   7.291  0.3801  0.0460  0.1009
    1GIB0    C3  133   3.007  -0.135   7.188  0.3709  0.0424  0.0883
    1GIB0   VS3  134   2.997  -0.362   7.162  0.2069  0.0486  0.0892
    1GIB0   NOH  135   1.803   0.252   5.746  0.0019  0.3025  0.3185
    1GIB0   GLA  136   1.751   0.381   5.496  0.1161 -0.0127  0.0177
    1GIB0   GLB  137   1.691  -0.028   5.725  0.0663  0.0040 -0.3314
    1GIB0   C1A  138   1.821   0.430   5.009 -0.0204  0.0242 -0.2702
    1GIB0   C2A  139   1.845   0.665   4.691  0.0747  0.1027  0.1072
    1GIB0   C3A  140   2.264   0.641   4.363 -0.3554 -0.1629 -0.0872
    1GIB0   C1B  141   1.499  -0.062   5.303 -0.2564 -0.0932 -0.1229
    1GIB0   C2B  142   1.495  -0.219   4.856 -0.0318  0.1374  0.1928
    1GIB0   C3B  143   1.464  -0.093   4.392 -0.2110 -0.0091 -0.0999
    1GIB0   C4B  144   1.388   0.095   3.914 -0.0746  0.1382  0.1740
    1GIB0   C5B  145   1.393   0.169   3.494 -0.3781  0.2046 -0.2655
    1GIB0   PO4  146   3.544   1.857   5.983  0.2207 -0.0557 -0.2304
    1GIB0    A0  147   3.519   2.169   5.820 -0.0199 -0.0427  0.0708
    1GIB0    B0  148   3.507   2.337   6.148 -0.2649 -0.0033  0.0436
    1GIB0    C0  149   3.385   2.519   5.831  0.0568 -0.0076 -0.0859
    1GIB0   VS0  150   3.470   2.342   5.933 -0.0760 -0.0179  0.0095
    1GIB0    A1  151   3.203   2.090   6.183 -0.1853 -0.1283  0.0430
    1GIB0    B1  152   3.032   2.271   6.436 -0.0793 -0.2105  0.1754
    1GIB0    C1  153   3.373   2.304   6.392 -0.1135 -0.1137 -0.0300
    1GIB0    D1  154   3.463   2.345   6.580 -0.0084 -0.1178 -0.0785
    1GIB0   VS1  155   3.203   2.221   6.337 -0.1260 -0.1508  0.0628
    1GIB0    A2  156   2.761   2.378   6.660 -0.0755 -0.2366  0.1975
    1GIB0    B2  157   2.695   2.749   6.709 -0.0395 -0.1785 -0.1643
    1GIB0    C2  158   3.089   2.710   6.718 -0.0513 -0.2507  0.1428
    1GIB0   VS2  159   2.848   2.613   6.695 -0.0554 -0.2219  0.0587
    1GIB0    A3  160   2.701   3.061   6.878 -0.0444  0.0530  0.1905
    1GIB0    B3  161   2.491   3.262   6.881 -0.1921 -0.0893 -0.1508
    1GIB0    C3  162   2.601   3.318   6.574  0.2326 -0.0607 -0.0005
    1GIB0   VS3  163   2.598   3.214   6.778 -0.0013 -0.0324  0.0131
    1GIB0   NOH  164   3.684   1.833   5.583 -0.2586  0.1873  0.3495
    1GIB0   GLA  165   3.549   1.973   5.386  0.1413  0.0389  0.0816
    1GIB0   GLB  166   3.545   1.556   5.551  0.0561  0.0616  0.1744
    1GIB0   C1A  167   3.536   2.090   5.005  0.2074  0.1202 -0.0313
    1GIB0   C2A  168   3.511   2.183   4.576 -0.4122  0.1791  0.0479
    1GIB0   C3A  169   3.637   2.264   4.156  0.1341 -0.2984 -0.0138
    1GIB0   C1B  170   3.536   1.513   5.047  0.4092  0.0185  0.0188
    1GIB0   C2B  171   3.647   1.705   4.640 -0.0140 -0.0201 -0.1846
    1GIB0   C3B  172   3.901   1.768   4.287 -0.0517  0.3568  0.2015
    1GIB0   C4B  173   4.032   1.857   3.843  0.1043  0.0354 -0.2552
    1GIB0   C5B  174   4.053   1.959   3.389 -0.1861  0.0974  0.2774
    1GIB0   PO4  175   3.313   3.451   6.133 -0.4127 -0.1525  0.1823
    1GIB0    A0  176   3.566   3.199   6.075  0.4290 -0.1154 -0.0494
    1GIB0    B0  177   3.389   3.055   6.365  0.2015  0.1078 -0.0743
    1GIB0    C0  178   3.591   2.828   6.127 -0.0460 -0.1522 -0.0424
    1GIB0   VS0  179   3.515   3.028   6.189  0.1948 -0.0533 -0.0554
    1GIB0    A1  180   3.561   3.379   6.494 -0.0187 -0.0844 -0.3073
    1GIB0    B1  181   3.778   3.269   6.752 -0.2011  0.1194 -0.0613
    1GIB0    C1  182   3.505   3.080   6.654 -0.1894  0.0887 -0.0348
    1GIB0    D1  183   3.432   2.971   6.822 -0.3187  0.2768  0.0351
    1GIB0   VS1  184   3.614   3.243   6.633 -0.1364  0.0412 -0.1345
    1GIB0    A2  185   3.859   3.349   7.041 -0.2215 -0.0484 -0.5702
    1GIB0    B2  186   4.192   3.531   7.022 -0.2769  0.0619 -0.4989
    1GIB0    C2  187   4.236   3.206   6.799  0.0184 -0.1474 -0.1475
    1GIB0   VS2  188   4.095   3.362   6.954 -0.1600 -0.0446 -0.4055
    1GIB0    A3  189   4.471   3.654   6.919 -0.0506 -0.0888 -0.1741
    1GIB0    B3  190   4.595   3.475   6.728 -0.0947 -0.4068  0.0845
    1GIB0    C3  191   4.633   3.285   6.994  0.2681  0.1650  0.4637
    1GIB0   VS3  192   4.566   3.471   6.880  0.0409 -0.1102  0.1247
    1GIB0   NOH  193   3.021   3.392   5.799  0.1190 -0.2104  0.4633
    1GIB0   GLA  194   3.040   3.273   5.530 -0.0899  0.0507 -0.0164
    1GIB0   GLB  195   2.965   3.691   5.798 -0.3056  0.2012  0.1327
    1GIB0   C1A  196   3.201   3.159   5.196  0.0766  0.3265 -0.1861
    1GIB0   C2A  197   3.159   3.040   4.757  0.0537  0.0855 -0.3626
    1GIB0   C3A  198   3.275   2.941   4.336 -0.0008 -0.0615 -0.1659
    1GIB0   C1B  199   2.957   3.926   5.323  0.2597  0.0109  0.0865
    1GIB0   C2B  200   2.884   4.071   4.877 -0.4164  0.0629  0.0092
    1GIB0   C3B  201   2.703   4.023   4.457  0.2412 -0.2484  0.1946
    1GIB0   C4B  202   2.759   3.976   4.012 -0.2132  0.0253  0.0682
    1GIB0   C5B  203   2.922   3.997   3.581 -0.1536  0.0352  0.0096
    1GIB0   PO4  204   1.027   1.516   6.199  0.1916 -0.1241 -0.1004
    1GIB0    A0  205   1.176   1.757   6.329  0.0586  0.0200  0.0077
    1GIB0    B0  206   1.237   1.504   6.591  0.2513  0.0401 -0.0165
    1GIB0    C0  207   1.374   1.863   6.630  0.0299  0.1255 -0.0099
    1GIB0   VS0  208   1.262   1.708   6.517  0.1133  0.0619 -0.0062
    1GIB0    A1  209   0.873   1.611   6.637 -0.0654 -0.0735 -0.1888
    1GIB0    B1  210   0.887   1.910   6.827 -0.2997  0.0027 -0.2869
    1GIB0    C1  211   1.117   1.656   6.874 -0.3375  0.0312  0.0786
    1GIB0    D1  212   1.179   1.656   7.078 -0.5714  0.1146  0.1528
    1GIB0   VS1  213   0.959   1.726   6.779 -0.2342 -0.0132 -0.1324
    1GIB0    A2  214   0.875   2.209   6.891 -0.1372  0.1358 -0.0311
    1GIB0    B2  215   1.203   2.397   6.844 -0.0588 -0.0393 -0.2017
    1GIB0    C2  216   1.296   2.070   7.047 -0.1091 -0.1414 -0.3412
    1GIB0   VS2  217   1.125   2.226   6.927 -0.1017 -0.0150 -0.1913
    1GIB0    A3  218   1.423   2.625   6.938 -0.0433 -0.2080  0.3572
    1GIB0    B3  219   1.426   2.769   7.189  0.0391  0.2636  0.0975
    1GIB0    C3  220   1.127   2.866   7.088 -0.0689 -0.0680  0.0879
    1GIB0   VS3  221   1.326   2.754   7.072 -0.0243 -0.0042  0.1809
    1GIB0   NOH  222   1.259   1.665   5.770 -0.0069  0.2111  0.1782
    1GIB0   GLA  223   1.400   1.784   5.538  0.3070 -0.3226  0.2900
    1GIB0   GLB  224   1.122   1.379   5.641  0.1587  0.1552  0.0212
    1GIB0   C1A  225   1.150   1.814   5.182  0.0880  0.1862  0.3433
    1GIB0   C2A  226   1.024   1.988   4.717  0.0643 -0.1591 -0.0217
    1GIB0   C3A  227   0.949   2.077   4.241 -0.0342 -0.2640 -0.0977
    1GIB0   C1B  228   1.426   1.385   5.192 -0.2616 -0.3145 -0.2922
    1GIB0   C2B  229   1.398   1.644   4.795 -0.1469 -0.2234  0.2230
    1GIB0   C3B  230   1.391   1.753   4.320 -0.3156  0.0613 -0.3121
    1GIB0   C4B  231   1.336   2.010   3.888 -0.0651 -0.0602  0.0260
    1GIB0   C5B  232   1.549   2.377   3.529  0.0430  0.2721 -0.1985
    1GIB0   PO4  233   1.486   4.147   6.126  0.0272  0.3800  0.1594
    1GIB0    A0  234   1.707   3.886   6.138 -0.0823 -0.0294 -0.2164
    1GIB0    B0  235   1.480   3.768   6.405  0.0738  0.0888 -0.0287
    1GIB0    C0  236   1.804   3.574   6.324  0.0334  0.0606 -0.1244
    1GIB0   VS0  237   1.664   3.743   6.289  0.0083  0.0400 -0.1232
    1GIB0    A1  238   1.691   4.071   6.560  0.3074  0.2538  0.1256
    1GIB0    B1  239   1.883   3.907   6.809 -0.0307 -0.1460  0.1328
    1GIB0    C1  240   1.570   3.791   6.717  0.2240 -0.2250 -0.7281
    1GIB0    D1  241   1.478   3.699   6.887 -0.0308 -0.6920 -1.0951
    1GIB0   VS1  242   1.715   3.923   6.695  0.1669 -0.0391 -0.1565
    1GIB0    A2  243   2.066   3.829   7.093 -0.2999 -0.0076 -0.0711
    1GIB0    B2  244   2.361   3.696   6.894 -0.1459  0.0778  0.0973
    1GIB0    C2  245   2.080   3.419   6.864 -0.0153 -0.0472  0.0133
    1GIB0   VS2  246   2.169   3.648   6.950 -0.1537  0.0076  0.0132
    1GIB0    A3  247   2.731   3.653   6.821 -0.0956 -0.0580  0.0555
    1GIB0    B3  248   2.848   3.464   7.007 -0.0516  0.0079  0.0955
    1GIB0    C3  249   2.773   3.698   7.227  0.0406  0.1052  0.0244
    1GIB0   VS3  250   2.784   3.605   7.018 -0.0355  0.0184  0.0584
    1GIB0   NOH  251   1.462   4.092   5.682  0.1470 -0.0850 -0.1003
    1GIB0   GLA  252   1.322   3.948   5.449  0.0530  0.0026 -0.0705
    1GIB0   GLB  253   1.714   3.949   5.722  0.3883 -0.2449  0.0023
    1GIB0   C1A  254   1.295   3.817   5.026 -0.0933 -0.1937  0.1847
    1GIB0   C2A  255   1.322   3.865   4.516 -0.2144 -0.1778  0.1804
    1GIB0   C3A  256   1.441   3.989   4.112  0.3874 -0.1551  0.0668
    1GIB0   C1B  257   1.965   4.211   5.382 -0.1284 -0.0319 -0.0628
    1GIB0   C2B  258   2.080   4.410   5.006 -0.1142 -0.0419 -0.3047
    1GIB0   C3B  259   1.962   4.557   4.526 -0.1077  0.0929  0.1089
    1GIB0   C4B  260   1.873   4.489   4.059 -0.0592 -0.0421 -0.0244
    1GIB0   C5B  261   1.874   4.468   3.597 -0.1147  0.3647 -0.2299
    1GIB0   PO4  262   2.715   1.671   5.854 -0.0762  0.1414 -0.2074
    1GIB0    A0  263   2.399   1.502   5.790 -0.2191 -0.1409 -0.0047
    1GIB0    B0  264   2.426   1.504   6.158  0.0470  0.0977 -0.0228
    1GIB0    C0  265   2.175   1.270   5.982 -0.3933  0.2895  0.3296
    1GIB0   VS0  266   2.334   1.425   5.976 -0.1885  0.0821  0.1007
    1GIB0    A1  267   2.654   1.237   6.082 -0.0428 -0.0840 -0.2535
    1GIB0    B1  268   2.643   1.083   6.401 -0.1424  0.2418 -0.0950
    1GIB0    C1  269   2.592   1.424   6.364 -0.1353  0.2072 -0.4612
    1GIB0    D1  270   2.663   1.523   6.539 -0.1923  0.3885 -0.5389
    1GIB0   VS1  271   2.630   1.248   6.282 -0.1068  0.1217 -0.2699
    1GIB0    A2  272   2.485   0.908   6.633 -0.0510  0.0520  0.0348
    1GIB0    B2  273   2.398   1.128   6.930  0.2454 -0.0230  0.1813
    1GIB0    C2  274   2.778   1.206   6.849  0.1686 -0.0053 -0.1783
    1GIB0   VS2  275   2.554   1.081   6.804  0.1210  0.0079  0.0126
    1GIB0    A3  276   2.281   1.264   7.245  0.0672  0.0692 -0.4292
    1GIB0    B3  277   2.156   1.081   7.431  0.4302 -0.1162 -0.3597
    1GIB0    C3  278   1.962   1.017   7.172  0.0967 -0.0615 -0.1308
    1GIB0   VS3  279   2.133   1.121   7.283  0.1980 -0.0362 -0.3066
    1GIB0   NOH  280   2.633   1.731   5.418  0.0751  0.0545  0.0582
    1GIB0   GLA  281   2.515   1.465   5.326  0.1688  0.0709  0.3261
    1GIB0   GLB  282   2.759   2.016   5.477  0.1412  0.1203 -0.0476
    1GIB0   C1A  283   2.556   1.092   5.053  0.0943  0.1775  0.0967
    1GIB0   C2A  284   2.652   1.310   4.607 -0.2520  0.0343  0.1844
    1GIB0   C3A  285   2.595   1.582   4.202 -0.2941 -0.1031 -0.1416
    1GIB0   C1B  286   2.733   2.198   5.012 -0.1678 -0.1088  0.3093
    1GIB0   C2B  287   2.757   2.092   4.549 -0.1141 -0.0664  0.0301
    1GIB0   C3B  288   2.752   2.154   4.095  0.2378 -0.1408  0.0241
    1GIB0   C4B  289   2.900   1.775   3.834  0.1180 -0.0399  0.1652
    1GIB0   C5B  290   2.771   1.297   3.860  0.2348 -0.0477 -0.0988
    1GIB0   PO4  291   3.975   3.135   5.943  0.1632 -0.0089  0.1625
    1GIB0    A0  292   3.948   3.378   6.177 -0.0193 -0.1404  0.1052
    1GIB0    B0  293   4.216   3.199   6.357  0.4886  0.2078 -0.2748
    1GIB0    C0  294   4.037   3.500   6.520  0.1218 -0.1936  0.0881
    1GIB0   VS0  295   4.067   3.359   6.351  0.1971 -0.0421 -0.0272
    1GIB0    A1  296   3.889   2.992   6.387  0.0899  0.2945 -0.0947
    1GIB0    B1  297   3.931   2.900   6.726  0.0584  0.1594 -0.1267
    1GIB0    C1  298   4.202   2.923   6.512  0.0732  0.2006 -0.1037
    1GIB0    D1  299   4.350   2.782   6.573  0.0491  0.1555 -0.1490
    1GIB0   VS1  300   4.007   2.938   6.542  0.0738  0.2181 -0.1083
    1GIB0    A2  301   4.129   2.770   6.963 -0.0432  0.3198 -0.2843
    1GIB0    B2  302   4.121   2.400   6.876 -0.0553  0.2236  0.1059
    1GIB0    C2  303   3.742   2.509   6.912 -0.0529  0.2851 -0.0466
    1GIB0   VS2  304   3.998   2.560   6.917 -0.0505  0.2761 -0.0750
    1GIB0    A3  305   4.184   2.053   6.883  0.1591 -0.1070  0.0546
    1GIB0    B3  306   4.053   1.917   6.662 -0.0948  0.1129  0.0646
    1GIB0    C3  307   3.811   2.131   6.731  0.1173  0.2726  0.3369
    1GIB0   VS3  308   4.016   2.034   6.759  0.0605  0.0928  0.1520
    1GIB0   NOH  309   3.969   3.418   5.595 -0.4685 -0.3685 -0.0664
    1GIB0   GLA  310   4.128   3.264   5.390 -0.2444 -0.0683  0.2392
    1GIB0   GLB  311   3.774   3.650   5.529 -0.2104  0.5896  0.0124
    1GIB0   C1A  312   4.192   3.354   5.012 -0.1256 -0.3487  0.2685
    1GIB0   C2A  313   4.173   3.157   4.621  0.1745  0.0560  0.2215
    1GIB0   C3A  314   4.264   2.999   4.230 -0.0483 -0.0717 -0.0411
    1GIB0   C1B  315   4.005   3.841   5.133 -0.1632 -0.1809 -0.5533
    1GIB0   C2B  316   4.023   3.664   4.654 -0.1228  0.1164 -0.3445
    1GIB0   C3B  317   4.069   3.627   4.221 -0.2365  0.2297 -0.0148
    1GIB0   C4B  318   3.906   3.781   3.788  0.1587 -0.0709 -0.2006
    1GIB0   C5B  319   3.476   3.871   3.613  0.0856  0.2070  0.1155
    1GIB0   PO4  320   3.393   4.297   6.303 -0.2861 -0.0881  0.1609
    1GIB0    A0  321   3.703   4.166   6.447  0.1270 -0.2757 -0.0472
    1GIB0    B0  322   3.558   4.374   6.715  0.2980 -0.0706 -0.1114
    1GIB0    C0  323   3.906   4.213   6.759  0.1738 -0.3335 -0.0687
    1GIB0   VS0  324   3.722   4.251   6.641  0.1996 -0.2266 -0.0757
    1GIB0    A1  325   3.614   4.618   6.419 -0.1360  0.0209 -0.0791
    1GIB0    B1  326   3.947   4.724   6.473 -0.2158  0.2939 -0.1099
    1GIB0    C1  327   3.754   4.601   6.732  0.0868 -0.4029 -0.1940
    1GIB0    D1  328   3.813   4.695   6.914  0.0973 -0.6678 -0.0542
    1GIB0   VS1  329   3.772   4.648   6.541 -0.0884 -0.0294 -0.1276
    1GIB0    A2  330   4.292   4.740   6.465  0.0035  0.0466  0.0220
    1GIB0    B2  331   4.466   5.067   6.547 -0.1126  0.1151 -0.0033
    1GIB0    C2  332   4.155   5.166   6.323 -0.1761 -0.0078  0.0297
    1GIB0   VS2  333   4.305   4.991   6.445 -0.0951  0.0513  0.0161
    1GIB0    A3  334   4.575   5.387   6.587  0.0976  0.2652  0.0389
    1GIB0    B3  335   4.764   5.441   6.800  0.1238  0.1072  0.0566
    1GIB0    C3  336   4.508   5.354   6.990  0.2239 -0.2801  0.0222
    1GIB0   VS3  337   4.616   5.394   6.792  0.1484  0.0307  0.0392
    1GIB0   NOH  338   3.483   3.902   5.972  0.1615  0.2361  0.0944
    1GIB0   GLA  339   3.373   3.798   5.709  0.0497  0.5544 -0.2538
    1GIB0   GLB  340   3.630   4.148   5.927 -0.0722  0.0218 -0.5052
    1GIB0   C1A  341   3.325   3.632   5.283 -0.1188 -0.1024 -0.0298
    1GIB0   C2A  342   3.093   3.580   4.864  0.0465 -0.0540 -0.1569
    1GIB0   C3A  343   3.074   3.399   4.403  0.1356 -0.2459  0.0956
    1GIB0   C1B  344   3.610   4.095   5.421  0.1242  0.0241 -0.3517
    1GIB0   C2B  345   3.373   4.187   5.013 -0.0684  0.0863  0.3114
    1GIB0   C3B  346   3.225   4.311   4.600  0.2604 -0.0360  0.2354
    1GIB0   C4B  347   2.926   4.498   4.268 -0.2712  0.1081 -0.3712
    1GIB0   C5B  348   2.680   4.785   3.976 -0.1171  0.2441  0.0128
    1GIB0   PO4  349   1.718   2.328   6.005 -0.0598 -0.2512 -0.0357
    1GIB0    A0  350   2.034   2.160   5.924 -0.1396 -0.2117  0.0456
    1GIB0    B0  351   1.905   1.938   6.189 -0.2269 -0.3893 -0.1426
    1GIB0    C0  352   2.257   1.881   6.039 -0.1548 -0.2541 -0.0265
    1GIB0   VS0  353   2.065   1.993   6.051 -0.1738 -0.2851 -0.0412
    1GIB0    A1  354   1.916   2.239   6.393 -0.0085  0.1062  0.1844
    1GIB0    B1  355   2.068   2.134   6.695  0.3736 -0.1420 -0.0844
    1GIB0    C1  356   1.923   1.906   6.479  0.4850 -0.0212 -0.2896
    1GIB0    D1  357   1.846   1.743   6.592  0.7831 -0.2864 -0.4524
    1GIB0   VS1  358   1.969   2.093   6.522  0.2834 -0.0190 -0.0632
    1GIB0    A2  359   2.094   1.866   6.961  0.0167  0.0145  0.0521
    1GIB0    B2  360   2.335   1.997   7.225  0.0586  0.1542 -0.0545
    1GIB0    C2  361   2.508   2.072   6.877 -0.1936  0.3696 -0.1373
    1GIB0   VS2  362   2.312   1.979   7.021 -0.0394  0.1794 -0.0466
    1GIB0    A3  363   2.543   2.181   7.442 -0.0058  0.2090 -0.0964
    1GIB0    B3  364   2.491   2.466   7.424 -0.0425  0.1900 -0.3081
    1GIB0    C3  365   2.608   2.424   7.118  0.1929  0.0238 -0.1980
    1GIB0   VS3  366   2.547   2.357   7.328  0.0482  0.1410 -0.2008
    1GIB0   NOH  367   1.574   2.383   5.556 -0.0885  0.2001  0.2755
    1GIB0   GLA  368   1.651   2.516   5.316 -0.0319  0.4049 -0.2033
    1GIB0   GLB  369   1.330   2.280   5.535 -0.1107  0.0490  0.3310
    1GIB0   C1A  370   1.816   2.607   4.892  0.2390  0.0570  0.0252
    1GIB0   C2A  371   1.777   2.547   4.481 -0.0768 -0.4087  0.1062
    1GIB0   C3A  372   1.574   2.452   4.025 -0.0481 -0.1573  0.1778
    1GIB0   C1B  373   1.276   2.245   5.093  0.2573  0.2335  0.2649
    1GIB0   C2B  374   1.525   2.153   4.685  0.0304 -0.1284 -0.2535
    1GIB0   C3B  375   1.752   2.055   4.232 -0.2351 -0.2085  0.0864
    1GIB0   C4B  376   1.854   1.752   3.825 -0.1112  0.0554  0.0337
    1GIB0   C5B  377   1.858   1.490   3.474 -0.1138 -0.2006 -0.1316
    1GIB0   PO4  378   4.290   1.331   5.959  0.0044 -0.0191 -0.0348
    1GIB0    A0  379   4.090   1.030   5.965 -0.0954 -0.0189  0.1031
    1GIB0    B0  380   3.964   1.257   6.227  0.2226  0.0909  0.1656
    1GIB0    C0  381   3.816   0.903   6.187 -0.2347  0.2807  0.1081
    1GIB0   VS0  382   3.957   1.063   6.126 -0.0358  0.1176  0.1256
    1GIB0    A1  383   4.301   1.090   6.350 -0.0166 -0.2790 -0.0156
    1GIB0    B1  384   4.205   0.972   6.670  0.0535 -0.1090  0.0695
    1GIB0    C1  385   4.084   1.271   6.545 -0.1203 -0.2649 -0.1429
    1GIB0    D1  386   4.048   1.405   6.708 -0.1960 -0.1692 -0.2362
    1GIB0   VS1  387   4.197   1.111   6.522 -0.0278 -0.2176 -0.0297
    1GIB0    A2  388   4.089   0.966   7.000  0.2387  0.0392  0.2516
    1GIB0    B2  389   4.161   0.618   7.133 -0.0171 -0.0364  0.1978
    1GIB0    C2  390   4.101   0.572   6.744  0.6104  0.1667  0.0659
    1GIB0   VS2  391   4.117   0.719   6.959  0.2774  0.0565  0.1718
    1GIB0    A3  392   4.086   0.327   7.266  0.0829 -0.0360  0.0411
    1GIB0    B3  393   3.819   0.301   7.376  0.0844 -0.1671  0.0150
    1GIB0    C3  394   3.881   0.605   7.488  0.0426 -0.2537  0.2819
    1GIB0   VS3  395   3.929   0.411   7.377  0.0700 -0.1523  0.1127
    1GIB0   NOH  396   4.092   1.400   5.542 -0.0040  0.0762  0.3932
    1GIB0   GLA  397   4.018   1.569   5.298  0.2051 -0.1407  0.0282
    1GIB0   GLB  398   4.112   1.119   5.475 -0.1229  0.0135  0.1357
    1GIB0   C1A  399   3.941   1.848   5.049 -0.0377 -0.0301  0.0795
    1GIB0   C2A  400   4.147   2.021   4.714 -0.1418  0.0941 -0.1343
    1GIB0   C3A  401   4.183   2.285   4.285  0.5001  0.0659 -0.2447
    1GIB0   C1B  402   4.057   1.194   4.975  0.0541 -0.2376  0.0828
    1GIB0   C2B  403   3.855   1.239   4.446 -0.3934 -0.1452 -0.2529
    1GIB0   C3B  404   3.531   1.471   4.170 -0.0995 -0.2529  0.2310
    1GIB0   C4B  405   3.295   1.470   3.778  0.1275  0.1589  0.2428
    1GIB0   C5B  406   3.166   1.047   3.490  0.1185 -0.1099  0.2980
    1GIB0   PO4  407   1.160   3.143   5.920 -0.1737 -0.1140  0.0872
    1GIB0    A0  408   1.088   3.327   6.226  0.0095  0.1657 -0.2214
    1GIB0    B0  409   1.455   3.316   6.263 -0.0011 -0.0779 -0.1750
    1GIB0    C0  410   1.236   3.469   6.541  0.0226 -0.5529  0.1174
    1GIB0   VS0  411   1.260   3.371   6.343  0.0103 -0.1550 -0.0930
    1GIB0    A1  412   1.341   2.990   6.335 -0.2938 -0.2523 -0.2282
    1GIB0    B1  413   1.515   2.910   6.633 -0.1284  0.0422 -0.2422
    1GIB0    C1  414   1.645   3.135   6.404 -0.3962  0.0487 -0.3915
    1GIB0    D1  415   1.857   3.124   6.410 -0.3831  0.2383 -0.4518
    1GIB0   VS1  416   1.500   3.012   6.457 -0.2728 -0.0538 -0.2873
    1GIB0    A2  417   1.691   2.957   6.887 -0.1943 -0.2727  0.2014
    1GIB0    B2  418   2.049   2.846   6.945 -0.0640 -0.0005 -0.0570
    1GIB0    C2  419   1.890   2.570   6.709  0.0232 -0.0394 -0.0710
    1GIB0   VS2  420   1.877   2.791   6.847 -0.0784 -0.1042  0.0244
    1GIB0    A3  421   2.324   2.721   6.926  0.0383  0.0254  0.0887
    1GIB0    B3  422   2.325   2.483   6.760 -0.0872 -0.0492  0.1922
    1GIB0    C3  423   2.187   2.348   7.027 -0.0424  0.1097  0.2976
    1GIB0   VS3  424   2.279   2.517   6.904 -0.0304  0.0286  0.1928
    1GIB0   NOH  425   1.030   3.522   5.681 -0.0178  0.0028 -0.2314
    1GIB0   GLA  426   1.228   3.391   5.464 -0.0258  0.1188  0.3174
    1GIB0   GLB  427   0.786   3.591   5.550 -0.1246  0.1734  0.1606
    1GIB0   C1A  428   1.609   3.374   5.143 -0.0842 -0.0618  0.1337
    1GIB0   C2A  429   1.701   3.520   4.667  0.3147 -0.0341  0.0490
    1GIB0   C3A  430   1.812   3.788   4.328 -0.2507 -0.0700 -0.1167
    1GIB0   C1B  431   0.917   3.431   5.067  0.0332 -0.0760 -0.0520
    1GIB0   C2B  432   1.076   3.393   4.586 -0.1925 -0.1539 -0.0853
    1GIB0   C3B  433   1.288   3.508   4.200 -0.3777  0.2154  0.0195
    1GIB0   C4B  434   1.566   3.580   3.826 -0.2714  0.4922 -0.0153
    1GIB0   C5B  435   1.453   3.490   3.364  0.1331  0.1016  0.0290
    1GIB0   PO4  436   0.383   3.634   6.354 -0.2859  0.0473  0.2802
    1GIB0    A0  437   0.460   3.993   6.445 -0.0296  0.2773 -0.1586
    1GIB0    B0  438   0.776   3.865   6.587 -0.2206 -0.1013 -0.0631
    1GIB0    C0  439   0.737   4.239   6.502  0.2084 -0.0287  0.0392
    1GIB0   VS0  440   0.658   4.032   6.511 -0.0140  0.0491 -0.0608
    1GIB0    A1  441   0.514   3.827   6.800  0.3098  0.1011 -0.1809
    1GIB0    B1  442   0.658   3.789   7.121 -0.2058  0.0159  0.0498
    1GIB0    C1  443   0.825   3.685   6.837  0.1038 -0.2493  0.3202
    1GIB0    D1  444   0.947   3.518   6.886 -0.1569 -0.3799  0.5499
    1GIB0   VS1  445   0.666   3.767   6.919  0.0693 -0.0441  0.0630
    1GIB0    A2  446   0.769   3.847   7.443  0.2594  0.0707 -0.2145
    1GIB0    B2  447   0.990   4.144   7.357  0.3266  0.0483 -0.1204
    1GIB0    C2  448   1.153   3.835   7.172  0.1590  0.1002 -0.3594
    1GIB0   VS2  449   0.971   3.942   7.324  0.2484  0.0731 -0.2314
    1GIB0    A3  450   1.092   4.412   7.150 -0.1871  0.2250 -0.1950
    1GIB0    B3  451   1.169   4.658   7.285 -0.1031 -0.0036  0.1886
    1GIB0    C3  452   0.857   4.646   7.391 -0.1709  0.0443 -0.0013
    1GIB0   VS3  453   1.039   4.572   7.275 -0.1537  0.0886 -0.0026
    1GIB0   NOH  454   0.201   3.715   5.939  0.0698 -0.4156 -0.2132
    1GIB0   GLA  455   0.324   3.670   5.671  0.2856  0.2091 -0.2606
    1GIB0   GLB  456  -0.023   3.890   5.836 -0.0405  0.0969 -0.0875
    1GIB0   C1A  457   0.433   3.617   5.280 -0.0625  0.1352  0.2660
    1GIB0   C2A  458   0.514   3.527   4.760  0.2324 -0.1342 -0.2678
    1GIB0   C3A  459   0.679   3.555   4.311  0.0711 -0.0729 -0.2269
    1GIB0   C1B  460  -0.085   3.755   5.388 -0.0159 -0.0171 -0.4210
    1GIB0   C2B  461   0.064   3.715   4.954  0.2642 -0.0108  0.0601
    1GIB0   C3B  462   0.047   3.630   4.471 -0.0409 -0.0248  0.0767
    1GIB0   C4B  463   0.105   3.466   4.053  0.3953 -0.2200  0.1104
    1GIB0   C5B  464  -0.012   3.749   3.623  0.3653 -0.0576  0.0113
    1GIB0   PO4  465   2.736   0.748   5.986 -0.1254  0.0068  0.0041
    1GIB0    A0  466   2.762   0.445   6.091  0.0397  0.0720  0.3518
    1GIB0    B0  467   2.677   0.585   6.421 -0.3938 -0.0766  0.3098
    1GIB0    C0  468   2.673   0.204   6.365 -0.1402 -0.0615  0.1788
    1GIB0   VS0  469   2.704   0.411   6.292 -0.1647 -0.0220  0.2802
    1GIB0    A1  470   3.060   0.669   6.359  0.1169 -0.0740  0.1892
    1GIB0    B1  471   3.235   0.654   6.667 -0.0278 -0.2398  0.2649
    1GIB0    C1  472   2.889   0.649   6.656 -0.0250 -0.1422  0.1038
    1GIB0    D1  473   2.813   0.742   6.832 -0.0807 -0.1894  0.1051
    1GIB0   VS1  474   3.061   0.658   6.561  0.0214 -0.1520  0.1860
    1GIB0    A2  475   3.264   0.517   6.998  0.0645 -0.2505  0.2698
    1GIB0    B2  476   3.247   0.839   7.200 -0.3540 -0.0702 -0.0385
    1GIB0    C2  477   3.467   0.925   6.882 -0.0966 -0.2187  0.0959
    1GIB0   VS2  478   3.326   0.760   7.026 -0.1287 -0.1798  0.1091
    1GIB0    A3  479   3.251   1.080   7.463 -0.2763  0.0988 -0.0739
    1GIB0    B3  480   3.276   0.904   7.692 -0.3300  0.1951  0.0073
    1GIB0    C3  481   3.012   0.761   7.556 -0.2298  0.0689 -0.0566
    1GIB0   VS3  482   3.180   0.915   7.570 -0.2787  0.1209 -0.0411
    1GIB0   NOH  483   2.800   0.435   5.639 -0.0239 -0.1406 -0.3689
    1GIB0   GLA  484   2.665   0.268   5.452  0.2013 -0.1677  0.2310
    1GIB0   GLB  485   2.747   0.718   5.558 -0.0306 -0.2106  0.0759
    1GIB0   C1A  486   2.504  -0.106   5.367  0.0377 -0.2169 -0.2583
    1GIB0   C2A  487   2.502  -0.588   5.445 -0.1726  0.0161  0.2482
    1GIB0   C3A  488   2.754  -0.968   5.199  0.0320 -0.0677 -0.0853
    1GIB0   C1B  489   2.754   0.614   5.033 -0.0158 -0.1358 -0.0303
    1GIB0   C2B  490   2.648   0.823   4.597  0.0166  0.1584  0.0238
    1GIB0   C3B  491   2.618   0.942   4.189  0.0267 -0.1826  0.1519
    1GIB0   C4B  492   2.394   0.912   3.843  0.0471  0.1522 -0.2719
    1GIB0   C5B  493   2.493   1.144   3.472  0.2765  0.0144  0.0655
    1GIB0   PO4  494   0.222   2.643   6.230  0.1686 -0.0512  0.1814
    1GIB0    A0  495   0.370   2.939   6.222 -0.1827 -0.0037  0.1663
    1GIB0    B0  496   0.631   2.752   6.404 -0.0650  0.0016  0.0051
    1GIB0    C0  497   0.674   3.129   6.332 -0.1216  0.0046 -0.0136
    1GIB0   VS0  498   0.558   2.940   6.320 -0.1231  0.0008  0.0526
    1GIB0    A1  499   0.353   2.745   6.666 -0.0534  0.0881 -0.2054
    1GIB0    B1  500   0.504   2.957   6.906 -0.0810 -0.3741  0.2382
    1GIB0    C1  501   0.690   2.725   6.729  0.0138  0.2244 -0.5021
    1GIB0    D1  502   0.852   2.659   6.852  0.1622  0.0511 -0.7814
    1GIB0   VS1  503   0.516   2.809   6.767 -0.0402 -0.0206 -0.1564
    1GIB0    A2  504   0.758   3.166   7.075 -0.2689  0.2345  0.1261
    1GIB0    B2  505   0.799   2.924   7.364 -0.1663 -0.0029 -0.0838
    1GIB0    C2  506   0.408   2.973   7.323 -0.1876 -0.1215 -0.0301
    1GIB0   VS2  507   0.655   3.021   7.254 -0.2076  0.0367  0.0041
    1GIB0    A3  508   0.877   2.713   7.562  0.0004 -0.3644  0.1169
    1GIB0    B3  509   1.131   2.579   7.521 -0.0393 -0.3924 -0.0404
    1GIB0    C3  510   0.994   2.505   7.229  0.0067  0.1424 -0.2089
    1GIB0   VS3  511   1.001   2.599   7.438 -0.0108 -0.2048 -0.0441
    1GIB0   NOH  512   0.293   2.653   5.782 -0.2074  0.2987  0.5620
    1GIB0   GLA  513   0.486   2.632   5.490 -0.1712 -0.0439 -0.0168
    1GIB0   GLB  514   0.104   2.845   5.605 -0.4566 -0.0226  0.0306
    1GIB0   C1A  515   0.663   2.592   5.116 -0.2561 -0.0338  0.3461
    1GIB0   C2A  516   0.849   2.498   4.720 -0.3529  0.0817 -0.2146
    1GIB0   C3A  517   1.087   2.538   4.349 -0.1334 -0.0893 -0.0853
    1GIB0   C1B  518   0.113   2.768   5.097  0.1414 -0.1846  0.1756
    1GIB0   C2B  519   0.377   2.602   4.638  0.3012  0.3056 -0.2545
    1GIB0   C3B  520   0.598   2.544   4.251 -0.0261  0.1342 -0.0961
    1GIB0   C4B  521   0.758   2.332   3.838  0.1068 -0.1392 -0.0955
    1GIB0   C5B  522   0.977   2.358   3.428 -0.2485 -0.0415 -0.2965
    1POPC   NC3  523   2.406   3.124   6.115  0.2038  0.1909 -0.0372
    1POPC   PO4  524   2.113   3.371   5.994 -0.1901 -0.0035  0.0644
    1POPC   GL1  525   1.981   3.284   5.581 -0.2150  0.1497 -0.2354
    1POPC   GL2  526   1.763   3.512   5.578  0.0141 -0.2363 -0.1413
    1POPC   C1A  527   2.266   3.340   5.192  0.2069 -0.1646 -0.0196
    1POPC   D2A  528   2.362   3.368   4.722  0.1406 -0.2437 -0.4743
    1POPC   C3A  529   2.315   3.666   4.437  0.1332 -0.1348  0.2121
    1POPC   C4A  530   2.245   3.950   4.107  0.2806  0.2424  0.2591
    1POPC   C1B  531   1.753   3.801   5.331 -0.1523  0.3176  0.1629
    1POPC   C2B  532   1.860   3.919   4.930  0.0892  0.3238  0.0040
    1POPC   C3B  533   2.173   4.124   4.621  0.1743 -0.2104 -0.2276
    1POPC   C4B  534   2.401   4.411   4.307  0.0600  0.1564  0.0103
    1POPC   NC3  535   0.683   2.423   6.045  0.0357  0.2637 -0.3029
    1POPC   PO4  536   0.519   2.198   5.783 -0.2217  0.1308 -0.0422
    1POPC   GL1  537   0.451   2.104   5.472 -0.0216  0.2162  0.1589
    1POPC   GL2  538   0.327   2.285   5.251 -0.0319  0.0060 -0.0231
    1POPC   C1A  539   0.491   1.706   5.128  0.2099 -0.0756 -0.1035
    1POPC   D2A  540   0.449   1.386   4.713  0.2728  0.2457  0.0735
    1POPC   C3A  541   0.707   1.584   4.366  0.3286 -0.0152  0.0239
    1POPC   C4A  542   0.874   1.627   3.952 -0.3209 -0.1876  0.0956
    1POPC   C1B  543   0.174   2.340   4.912  0.4137  0.2423  0.1086
    1POPC   C2B  544   0.083   2.149   4.553 -0.4878  0.1845  0.0193
    1POPC   C3B  545  -0.072   1.876   4.197 -0.0906  0.0849 -0.0126
    1POPC   C4B  546  -0.227   1.466   3.990 -0.1499 -0.1947 -0.2941
    1POPC   NC3  547   2.323   0.359   6.132 -0.0452  0.2827 -0.1845
    1POPC   PO4  548   2.349   0.508   5.792  0.1170  0.1236  0.5251
    1POPC   GL1  549   2.240   0.514   5.448 -0.1308  0.2097 -0.0621
    1POPC   GL2  550   2.084   0.700   5.404 -0.0087  0.2223  0.1269
    1POPC   C1A  551   2.341   0.349   5.099 -0.2864  0.1405 -0.0406
    1POPC   D2A  552   2.525   0.353   4.635  0.2035  0.1178  0.0007
    1POPC   C3A  553   2.517  -0.095   4.787 -0.1159 -0.1834 -0.0618
    1POPC   C4A  554   2.411  -0.588   4.947 -0.3580  0.0275  0.2490
    1POPC   C1B  555   2.129   0.819   5.002  0.3156  0.2007  0.1398
    1POPC   C2B  556   2.144   1.017   4.662 -0.3415  0.0108  0.1021
    1POPC   C3B  557   2.107   1.217   4.259 -0.1009  0.1644 -0.1411
    1POPC   C4B  558   2.213   1.387   3.806  0.0217  0.1365  0.1471
    1POPC   NC3  559   3.188   2.970   5.927  0.0850  0.0409  0.0677
    1POPC   PO4  560   2.788   3.015   5.864  0.0741  0.0706 -0.1067
    1POPC   GL1  561   2.714   2.882   5.451 -0.5422 -0.2343 -0.4381
    1POPC   GL2  562   2.607   3.124   5.302 -0.2664 -0.1782 -0.0010
    1POPC   C1A  563   2.849   2.715   5.063 -0.1531  0.1056 -0.0416
    1POPC   D2A  564   3.034   2.566   4.631 -0.0673 -0.3754 -0.1897
    1POPC   C3A  565   3.141   2.366   4.233  0.2831 -0.2347 -0.0666
    1POPC   C4A  566   3.034   2.275   3.737 -0.1134  0.1945 -0.0755
    1POPC   C1B  567   2.675   3.106   4.902 -0.0589  0.0428 -0.0686
    1POPC   C2B  568   2.712   3.015   4.520  0.0206 -0.0944 -0.1246
    1POPC   C3B  569   2.867   3.056   4.048  0.0451 -0.3581 -0.1886
    1POPC   C4B  570   2.875   3.100   3.569  0.0955  0.0969  0.2994
    1POPC   NC3  571   3.188   2.735   5.491  0.1685  0.3071 -0.0990
    1POPC   PO4  572   3.607   2.837   5.634  0.0767 -0.0320  0.0928
    1POPC   GL1  573   3.798   3.020   5.442 -0.3327  0.1098 -0.1808
    1POPC   GL2  574   3.896   2.847   5.222 -0.0244  0.0945 -0.0323
    1POPC   C1A  575   3.723   3.382   5.138  0.1747  0.2404 -0.1225
    1POPC   D2A  576   3.522   3.734   4.819  0.1404 -0.0460  0.1789
    1POPC   C3A  577   3.214   3.879   4.426  0.2107 -0.0154  0.1964
    1POPC   C4A  578   3.246   4.011   4.003 -0.0355  0.5255  0.1892
    1POPC   C1B  579   4.093   2.779   4.954  0.3464  0.2586  0.0985
    1POPC   C2B  580   4.335   2.608   4.643  0.1742 -0.1877  0.3375
    1POPC   C3B  581   4.581   2.634   4.247  0.1392 -0.0107 -0.2448
    1POPC   C4B  582   4.723   2.579   3.811  0.1524 -0.1306 -0.1944
    1POPC   NC3  583   0.568   0.233   5.714  0.3962 -0.3673  0.1085
    1POPC   PO4  584   0.656  -0.140   5.751  0.0357 -0.1720  0.1474
    1POPC   GL1  585   0.387  -0.346   5.569  0.0526  0.1416  0.1113
    1POPC   GL2  586   0.477  -0.330   5.323 -0.1092 -0.1331 -0.0233
    1POPC   C1A  587   0.035  -0.187   5.376  0.1609  0.0227  0.0456
    1POPC   D2A  588  -0.141  -0.201   4.895  0.1673 -0.3190  0.0794
    1POPC   C3A  589  -0.210  -0.389   4.528  0.1709  0.1559  0.2453
    1POPC   C4A  590  -0.125  -0.523   4.044 -0.2598 -0.0262  0.0589
    1POPC   C1B  591   0.336  -0.457   5.062  0.1398 -0.1219 -0.0529
    1POPC   C2B  592   0.258  -0.431   4.675  0.2289  0.2508 -0.0493
    1POPC   C3B  593   0.356  -0.500   4.188  0.0014  0.0923  0.0091
    1POPC   C4B  594   0.468  -0.497   3.776  0.0155 -0.0874  0.0009
    1POPC   NC3  595   2.410   0.981   5.614  0.4729  0.2969  0.0469
    1POPC   PO4  596   2.076   1.141   5.562  0.0719 -0.0549  0.0352
    1POPC   GL1  597   2.043   1.182   5.179 -0.0428  0.2235 -0.2654
    1POPC   GL2  598   1.819   1.160   5.033 -0.0972  0.0267 -0.2634
    1POPC   C1A  599   2.293   1.475   4.893 -0.3169  0.0762 -0.1920
    1POPC   D2A  600   2.746   1.731   4.905 -0.0447  0.0328 -0.2368
    1POPC   C3A  601   3.086   1.396   4.863  0.0136  0.1990  0.1813
    1POPC   C4A  602   3.442   1.108   4.854  0.0113 -0.4598 -0.1054
    1POPC   C1B  603   1.724   1.274   4.704  0.1263 -0.2036 -0.5376
    1POPC   C2B  604   1.587   1.283   4.315 -0.1187  0.2716 -0.1359
    1POPC   C3B  605   1.383   1.495   3.878  0.3724 -0.3870  0.2479
    1POPC   C4B  606   1.297   1.445   3.412  0.0117 -0.0300 -0.2016
    1POPC   NC3  607   0.700   2.917   5.896 -0.3672 -0.0285  0.1248
    1POPC   PO4  608   0.414   3.144   5.695  0.0316 -0.0904 -0.0462
    1POPC   GL1  609   0.356   3.070   5.344  0.3780  0.5435  0.2593
    1POPC   GL2  610   0.102   3.276   5.316 -0.0149  0.0122  0.1497
    1POPC   C1A  611   0.561   3.092   5.012  0.2433  0.3067 -0.1008
    1POPC   D2A  612   0.860   2.989   4.570 -0.0713 -0.0479  0.0845
    1POPC   C3A  613   1.012   3.060   4.142  0.0126  0.1760  0.1505
    1POPC   C4A  614   1.040   3.255   3.676 -0.0618  0.4898 -0.4053
    1POPC   C1B  615   0.092   3.221   4.953  0.0695  0.0624 -0.2978
    1POPC   C2B  616   0.139   3.089   4.544  0.0220  0.0061  0.1424
    1POPC   C3B  617   0.444   3.160   4.142 -0.2721 -0.1831  0.1341
    1POPC   C4B  618   0.555   3.354   3.672  0.1577 -0.0316  0.1932
    1POPC   NC3  619   3.699   0.796   5.753 -0.0181 -0.0660 -0.0663
    1POPC   PO4  620   3.654   0.478   5.570 -0.1560  0.1609  0.0513
    1POPC   GL1  621   3.675   0.332   5.183  0.0389  0.3043 -0.1237
    1POPC   GL2  622   3.507   0.144   5.166 -0.0207 -0.2966 -0.2750
    1POPC   C1A  623   3.901   0.352   4.819  0.1353 -0.1349  0.0223
    1POPC   D2A  624   4.117   0.154   4.432 -0.1251  0.1726  0.0221
    1POPC   C3A  625   3.971  -0.074   4.077 -0.0268 -0.0763 -0.1425
    1POPC   C4A  626   4.182  -0.274   3.664  0.1142  0.1039  0.2572
    1POPC   C1B  627   3.440   0.192   4.830  0.2760  0.4478 -0.2222
    1POPC   C2B  628   3.541   0.193   4.511 -0.0864 -0.0680  0.2426
    1POPC   C3B  629   3.583   0.490   4.116 -0.0081  0.4906  0.0750
    1POPC   C4B  630   3.576   0.993   4.037 -0.1693 -0.0274 -0.1422
    1POPC   NC3  631   4.317   0.322   6.034  0.0380 -0.1025  0.1464
    1POPC   PO4  632   4.157   0.618   5.865 -0.1886  0.1024 -0.0558
    1POPC   GL1  633   4.112   0.720   5.500 -0.2140 -0.0536  0.0708
    1POPC   GL2  634   3.949   0.796   5.303 -0.1500 -0.2059  0.0011
    1POPC   C1A  635   4.416   0.899   5.184 -0.0070  0.1275 -0.1656
    1POPC   D2A  636   4.681   0.978   4.812 -0.0655 -0.0094  0.0414
    1POPC   C3A  637   4.916   1.028   4.418  0.1235  0.1394 -0.2251
    1POPC   C4A  638   5.114   1.130   3.993  0.1443 -0.1228 -0.0547
    1POPC   C1B  639   3.914   0.790   4.968  0.1726 -0.1676 -0.0868
    1POPC   C2B  640   3.842   0.763   4.540 -0.1168  0.0690  0.1670
    1POPC   C3B  641   4.025   0.856   4.084  0.1476 -0.1823 -0.0725
    1POPC   C4B  642   4.243   0.486   3.845  0.0682  0.1728  0.0511
    1POPC   NC3  643   1.626   3.211   5.874 -0.0060  0.1063  0.0889
    1POPC   PO4  644   1.817   2.894   5.737 -0.1315  0.5412 -0.2276
    1POPC   GL1  645   2.002   2.817   5.319 -0.2566 -0.0801 -0.4005
    1POPC   GL2  646   1.740   2.935   5.180 -0.1770 -0.0329 -0.3062
    1POPC   C1A  647   2.363   2.726   5.043  0.0695 -0.0361  0.2317
    1POPC   D2A  648   2.325   2.742   4.517 -0.0080 -0.0361 -0.3469
    1POPC   C3A  649   2.064   2.755   4.093  0.1258 -0.5546 -0.2821
    1POPC   C4A  650   1.869   2.786   3.604  0.3811  0.0753 -0.1026
    1POPC   C1B  651   1.734   3.055   4.832 -0.0351  0.1554 -0.4690
    1POPC   C2B  652   1.843   3.080   4.471 -0.0857 -0.0962 -0.1422
    1POPC   C3B  653   2.260   3.179   4.293 -0.2189  0.0895  0.0886
    1POPC   C4B  654   2.578   3.491   4.089 -0.4212 -0.1453  0.0920
    1POPC   NC3  655   1.594   1.341   5.739 -0.1329  0.4162 -0.0704
    1POPC   PO4  656   1.905   1.627   5.790  0.1611  0.1671  0.1071
    1POPC   GL1  657   2.042   1.588   5.365 -0.0974  0.3426 -0.3872
    1POPC   GL2  658   1.850   1.498   5.340 -0.0921 -0.2165  0.2010
    1POPC   C1A  659   2.149   1.899   5.076  0.0336 -0.1723 -0.1632
    1POPC   D2A  660   2.173   2.277   4.709 -0.2451  0.1024  0.3563
    1POPC   C3A  661   2.265   2.283   4.233 -0.0099  0.0130 -0.0982
    1POPC   C4A  662   2.605   2.645   3.980 -0.1322  0.0298 -0.0954
    1POPC   C1B  663   1.815   1.601   5.001 -0.1687  0.4029  0.0795
    1POPC   C2B  664   1.877   1.705   4.602  0.0160  0.0081  0.5032
    1POPC   C3B  665   2.168   1.723   4.199 -0.3505  0.0914  0.3189
    1POPC   C4B  666   2.338   1.981   3.835 -0.2377 -0.0489  0.1888
    1POPC   NC3  667   3.985   1.699   5.883 -0.1870  0.4370  0.2574
    1POPC   PO4  668   4.056   2.086   5.712  0.2329 -0.1817 -0.0126
    1POPC   GL1  669   4.181   2.024   5.408  0.1952  0.0118  0.5684
    1POPC   GL2  670   4.455   1.801   5.452 -0.0781 -0.1312  0.2193
    1POPC   C1A  671   4.201   2.313   5.101 -0.0138 -0.3363  0.1440
    1POPC   D2A  672   3.871   2.456   4.767  0.0639  0.0164  0.1623
    1POPC   C3A  673   3.823   2.768   4.416 -0.2951  0.1049  0.0322
    1POPC   C4A  674   3.760   3.142   4.130 -0.0332  0.0752 -0.2915
    1POPC   C1B  675   4.588   1.911   5.132 -0.3760  0.0123  0.0763
    1POPC   C2B  676   4.630   1.753   4.786 -0.0166  0.0688  0.0452
    1POPC   C3B  677   4.623   1.453   4.370 -0.2198  0.1831  0.3383
    1POPC   C4B  678   4.577   1.086   3.982  0.2375  0.3295 -0.0466
    1POPC   NC3  679   3.102   1.992   5.770 -0.2188  0.0790 -0.1040
    1POPC   PO4  680   3.144   2.283   5.515  0.0582  0.2525 -0.3083
    1POPC   GL1  681   3.155   2.283   5.113  0.4095  0.0120 -0.1128
    1POPC   GL2  682   3.116   2.004   5.051 -0.0328 -0.0305 -0.3346
    1POPC   C1A  683   3.400   2.643   5.016  0.2533  0.1187  0.2481
    1POPC   D2A  684   3.671   3.020   4.836  0.1925  0.0832 -0.0684
    1POPC   C3A  685   3.614   3.342   4.542  0.0891  0.0089 -0.2231
    1POPC   C4A  686   3.523   3.602   4.180 -0.1510  0.0428  0.0911
    1POPC   C1B  687   3.118   1.925   4.742  0.0711  0.0613  0.2649
    1POPC   C2B  688   3.061   1.726   4.359 -0.0538  0.2401 -0.2111
    1POPC   C3B  689   3.349   1.878   4.009 -0.1910 -0.0306  0.4121
    1POPC   C4B  690   3.517   1.897   3.536 -0.0029  0.1208  0.0814
    1POPC   NC3  691   1.675   0.872   5.360  0.2027 -0.2055  0.2172
    1POPC   PO4  692   1.404   0.903   5.608  0.0588 -0.2098  0.0332
    1POPC   GL1  693   1.174   1.057   5.332  0.1120 -0.1543  0.0770
    1POPC   GL2  694   0.893   0.874   5.419  0.1180  0.1545 -0.0755
    1POPC   C1A  695   1.318   0.910   4.888 -0.1502 -0.0567  0.1184
    1POPC   D2A  696   1.363   0.775   4.426 -0.2251  0.0525 -0.2284
    1POPC   C3A  697   1.375   0.619   3.967 -0.3583  0.0612 -0.2406
    1POPC   C4A  698   1.198   0.649   3.460 -0.0963 -0.0949 -0.2453
    1POPC   C1B  699   0.901   0.653   5.117  0.0157 -0.1236 -0.0580
    1POPC   C2B  700   0.895   0.494   4.770  0.1272  0.3709  0.1248
    1POPC   C3B  701   0.903   0.306   4.363  0.2099 -0.1221 -0.1177
    1POPC   C4B  702   0.881   0.332   3.879 -0.0231 -0.0287 -0.2681
    1POPC   NC3  703   1.084   0.702   6.162  0.0871  0.0786 -0.3991
    1POPC   PO4  704   0.946   0.657   5.796 -0.2748  0.1109  0.0050
    1POPC   GL1  705   0.961   0.407   5.522  0.0524  0.1162  0.1391
    1POPC   GL2  706   1.247   0.431   5.445  0.1807  0.0162 -0.0928
    1POPC   C1A  707   0.731   0.174   5.176 -0.1723 -0.1977 -0.0667
    1POPC   D2A  708   0.316   0.050   5.061  0.0936 -0.0293  0.0750
    1POPC   C3A  709   0.112   0.179   4.664 -0.0334 -0.0458  0.1450
    1POPC   C4A  710  -0.024   0.575   4.307 -0.1153 -0.3000 -0.4055
    1POPC   C1B  711   1.376   0.352   5.082  0.2468 -0.3879 -0.1484
    1POPC   C2B  712   1.402   0.299   4.726 -0.0789  0.0631  0.0843
    1POPC   C3B  713   1.664   0.373   4.338 -0.1696  0.1467  0.0746
    1POPC   C4B  714   1.919   0.523   3.959 -0.2554 -0.2065 -0.0022
    1POPC   NC3  715   0.612   3.941   6.019  0.1023 -0.3529 -0.3649
    1POPC   PO4  716   0.903   3.927   5.778  0.0441  0.0575 -0.0890
    1POPC   GL1  717   0.870   3.986   5.412  0.1405 -0.1619  0.0780
    1POPC   GL2  718   0.969   4.241   5.385 -0.0442  0.1004 -0.1171
    1POPC   C1A  719   0.782   3.957   4.987  0.1247  0.0252  0.3228
    1POPC   D2A  720   0.822   4.053   4.518 -0.3033  0.2201  0.0598
    1POPC   C3A  721   0.942   4.212   4.107 -0.0339 -0.1054 -0.1575
    1POPC   C4A  722   0.847   4.346   3.693 -0.1227 -0.1001  0.1322
    1POPC   C1B  723   1.104   4.392   5.098  0.1211 -0.2937  0.2952
    1POPC   C2B  724   0.913   4.457   4.775  0.2656  0.0324  0.0668
    1POPC   C3B  725   0.539   4.452   4.435 -0.0529  0.3334  0.0153
    1POPC   C4B  726   0.037   4.415   4.219 -0.1083 -0.2471  0.1314
    1POPC   NC3  727   1.425   2.747   5.921 -0.0676  0.0575 -0.3715
    1POPC   PO4  728   1.096   2.569   5.804  0.0752 -0.2718 -0.0121
    1POPC   GL1  729   1.001   2.590   5.434 -0.1851 -0.1012  0.1413
    1POPC   GL2  730   0.827   2.291   5.376  0.0821  0.2572 -0.0675
    1POPC   C1A  731   1.201   2.723   5.042 -0.0313 -0.1301  0.1702
    1POPC   D2A  732   1.393   2.832   4.617 -0.0585 -0.0703  0.1190
    1POPC   C3A  733   1.518   2.986   4.156  0.0049 -0.1875  0.0639
    1POPC   C4A  734   1.894   3.293   4.018 -0.2528  0.1178 -0.2411
    1POPC   C1B  735   0.760   2.136   5.045  0.1020  0.0208  0.1167
    1POPC   C2B  736   0.557   2.097   4.679  0.4861  0.3751  0.2793
    1POPC   C3B  737   0.427   2.101   4.243  0.2666  0.1740  0.0172
    1POPC   C4B  738   0.370   2.077   3.727  0.3154  0.0341 -0.0684
    1GIB0   PO4  739   4.375   2.247   1.111  0.0367  0.1078 -0.0199
    1GIB0    A0  740   4.020   2.170   1.186  0.0924 -0.1007  0.0960
    1GIB0    B0  741   4.044   1.868   0.976  0.0813 -0.0426  0.0108
    1GIB0    C0  742   3.704   1.977   1.122  0.0756 -0.0407 -0.0039
    1GIB0   VS0  743   3.923   2.005   1.095  0.0831 -0.0613  0.0343
    1GIB0    A1  744   4.074   2.177   0.773 -0.0537 -0.1786 -0.0674
    1GIB0    B1  745   3.794   2.173   0.556 -0.2678  0.3464  0.1844
    1GIB0    C1  746   3.965   1.882   0.633 -0.5773  0.0577 -0.1793
    1GIB0    D1  747   3.953   1.750   0.466 -0.9091  0.1850 -0.2659
    1GIB0   VS1  748   3.944   2.077   0.654 -0.2995  0.0752 -0.0208
    1GIB0    A2  749   3.502   2.025   0.470  0.2540 -0.2028  0.2921
    1GIB0    B2  750   3.503   1.712   0.253  0.0177 -0.1520  0.2142
    1GIB0    C2  751   3.784   1.947   0.102 -0.1546 -0.1113 -0.0484
    1GIB0   VS2  752   3.596   1.895   0.275  0.0390 -0.1553  0.1526
    1GIB0    A3  753   3.533   1.473   0.063  0.0888 -0.2155 -0.0484
    1GIB0    B3  754   3.717   1.270   0.157 -0.0723 -0.2800  0.1326
    1GIB0    C3  755   3.940   1.505   0.099  0.0632 -0.3354  0.4109
    1GIB0   VS3  756   3.730   1.416   0.106  0.0266 -0.2769  0.1651
    1GIB0   NOH  757   4.348   2.559   1.460 -0.0398 -0.0003 -0.3450
    1GIB0   GLA  758   4.361   2.792   1.618  0.0602 -0.0375 -0.0714
    1GIB0   GLB  759   4.429   2.338   1.635 -0.3000 -0.0254 -0.2822
    1GIB0   C1A  760   4.477   3.193   1.766 -0.0705 -0.1870  0.1340
    1GIB0   C2A  761   4.307   3.424   2.082 -0.1585 -0.1250 -0.0389
    1GIB0   C3A  762   4.194   3.577   2.530  0.4807 -0.0741  0.2172
    1GIB0   C1B  763   4.497   2.509   2.109  0.1283  0.1862 -0.3253
    1GIB0   C2B  764   4.398   2.208   2.538  0.1780 -0.0505  0.1299
    1GIB0   C3B  765   4.379   2.322   3.010 -0.0582  0.2035  0.0882
    1GIB0   C4B  766   4.562   2.302   3.428  0.2418  0.2561  0.4865
    1GIB0   C5B  767   4.354   2.225   3.800  0.0391 -0.3302  0.0163
    1GIB0   PO4  768   0.348   2.915   1.227  0.0312 -0.0822 -0.0121
    1GIB0    A0  769   0.052   2.981   1.298 -0.2286  0.0897 -0.1573
    1GIB0    B0  770   0.015   2.717   1.043  0.0647 -0.1414  0.0323
    1GIB0    C0  771  -0.296   2.884   1.200 -0.1235 -0.3481 -0.1152
    1GIB0   VS0  772  -0.077   2.861   1.180 -0.0958 -0.1333 -0.0801
    1GIB0    A1  773   0.150   3.004   0.833 -0.1570 -0.1496  0.1162
    1GIB0    B1  774   0.103   2.913   0.494 -0.1985  0.3371 -0.0165
    1GIB0    C1  775   0.143   2.674   0.740  0.0352 -0.0210 -0.3891
    1GIB0    D1  776   0.240   2.503   0.656  0.1236  0.1669 -0.6821
    1GIB0   VS1  777   0.132   2.864   0.689 -0.1067  0.0555 -0.0965
    1GIB0    A2  778  -0.016   2.904   0.179 -0.0267  0.0205 -0.1790
    1GIB0    B2  779  -0.018   2.558   0.023  0.0619 -0.1675  0.2234
    1GIB0    C2  780   0.309   2.571   0.247  0.1008  0.2067  0.1506
    1GIB0   VS2  781   0.091   2.677   0.150  0.0453  0.0199  0.0650
    1GIB0    A3  782  -0.143   2.259  -0.126  0.3610  0.1408  0.0545
    1GIB0    B3  783   0.056   2.097  -0.262  0.2506 -0.0384  0.1037
    1GIB0    C3  784   0.110   2.377  -0.426  0.2549 -0.1986 -0.1747
    1GIB0   VS3  785   0.008   2.244  -0.271  0.2889 -0.0321 -0.0055
    1GIB0   NOH  786   0.530   2.916   1.627  0.0058  0.2129  0.0065
    1GIB0   GLA  787   0.661   3.114   1.769 -0.4621  0.1902  0.1425
    1GIB0   GLB  788   0.325   2.752   1.730  0.1365  0.4114 -0.3767
    1GIB0   C1A  789   0.669   3.242   2.197  0.2627 -0.2115  0.0905
    1GIB0   C2A  790   0.526   3.129   2.619 -0.1296  0.2824 -0.1194
    1GIB0   C3A  791   0.538   3.052   3.099 -0.0348 -0.2344  0.1485
    1GIB0   C1B  792   0.228   2.953   2.170  0.0998  0.2657  0.0817
    1GIB0   C2B  793  -0.077   3.105   2.488  0.0282 -0.1589 -0.1596
    1GIB0   C3B  794  -0.239   3.079   2.936  0.0796 -0.2353  0.1855
    1GIB0   C4B  795  -0.363   3.187   3.359  0.2239 -0.2806 -0.0553
    1GIB0   C5B  796  -0.353   3.328   3.795 -0.1268 -0.0589 -0.1039
    1GIB0   PO4  797   2.810   3.828   1.428 -0.1321  0.0218  0.1828
    1GIB0    A0  798   3.176   3.836   1.402 -0.1684  0.0210  0.0912
    1GIB0    B0  799   3.076   4.086   1.149  0.0364  0.1100  0.0962
    1GIB0    C0  800   3.435   3.944   1.153 -0.0819 -0.1977  0.0839
    1GIB0   VS0  801   3.229   3.956   1.235 -0.0713 -0.0222  0.0904
    1GIB0    A1  802   2.988   3.749   1.028 -0.5070 -0.0633 -0.1982
    1GIB0    B1  803   3.134   3.770   0.706 -0.5683 -0.1057 -0.2289
    1GIB0    C1  804   2.999   4.049   0.861 -0.1998 -0.0041 -0.0796
    1GIB0    D1  805   2.922   4.180   0.711 -0.0874  0.1485 -0.0063
    1GIB0   VS1  806   3.040   3.856   0.865 -0.4250 -0.0577 -0.1689
    1GIB0    A2  807   3.405   3.662   0.449  0.0543  0.1708  0.0130
    1GIB0    B2  808   3.369   3.936   0.188  0.3070  0.1000 -0.0996
    1GIB0    C2  809   2.999   3.838   0.290  0.1978  0.0040 -0.5634
    1GIB0   VS2  810   3.258   3.812   0.309  0.1864  0.0916 -0.2166
    1GIB0    A3  811   3.415   4.186  -0.027 -0.1536 -0.1786  0.0029
    1GIB0    B3  812   3.391   4.162  -0.315 -0.0425  0.2064 -0.0431
    1GIB0    C3  813   3.647   3.958  -0.276 -0.1035  0.0967 -0.2075
    1GIB0   VS3  814   3.484   4.102  -0.206 -0.0999  0.0415 -0.0826
    1GIB0   NOH  815   2.815   4.021   1.898  0.2054  0.1180  0.0728
    1GIB0   GLA  816   2.888   4.177   2.137  0.1955 -0.1025 -0.3755
    1GIB0   GLB  817   3.111   3.941   1.820  0.0541 -0.1016  0.1264
    1GIB0   C1A  818   3.168   4.364   2.375  0.0663 -0.0229  0.1935
    1GIB0   C2A  819   3.442   4.502   2.770 -0.0689  0.5163  0.1175
    1GIB0   C3A  820   3.827   4.539   3.090  0.0447  0.0267 -0.0260
    1GIB0   C1B  821   3.376   3.943   2.202  0.2207 -0.0368  0.1241
    1GIB0   C2B  822   3.361   4.006   2.721  0.1844 -0.0495  0.3833
    1GIB0   C3B  823   3.444   4.135   3.182  0.0155 -0.2812  0.0213
    1GIB0   C4B  824   3.671   4.332   3.562  0.1946  0.0978 -0.1142
    1GIB0   C5B  825   3.831   4.790   3.699 -0.0145 -0.2368  0.0183
    1GIB0   PO4  826   1.879   2.341   1.232  0.4030 -0.1036  0.0250
    1GIB0    A0  827   2.215   2.517   1.162 -0.0743 -0.0875 -0.0133
    1GIB0    B0  828   2.059   2.737   0.910  0.1173 -0.4134 -0.4270
    1GIB0    C0  829   2.444   2.710   0.936  0.1072 -0.1682  0.0985
    1GIB0   VS0  830   2.239   2.655   1.003  0.0501 -0.2230 -0.1139
    1GIB0    A1  831   1.949   2.403   0.798 -0.0667 -0.3501 -0.0022
    1GIB0    B1  832   2.044   2.358   0.460 -0.1080 -0.0184 -0.0611
    1GIB0    C1  833   2.012   2.674   0.597 -0.1509 -0.1490  0.2375
    1GIB0    D1  834   1.950   2.810   0.445 -0.2007 -0.0188  0.3709
    1GIB0   VS1  835   2.002   2.479   0.618 -0.1085 -0.1725  0.0581
    1GIB0    A2  836   2.100   2.366   0.150  0.0215 -0.1125  0.0502
    1GIB0    B2  837   1.956   2.064  -0.030  0.0695 -0.0785 -0.0459
    1GIB0    C2  838   2.183   1.916   0.258  0.0652 -0.1340 -0.0708
    1GIB0   VS2  839   2.080   2.115   0.126  0.0520 -0.1083 -0.0222
    1GIB0    A3  840   1.738   1.826  -0.167 -0.0534 -0.0185 -0.0788
    1GIB0    B3  841   1.505   1.837   0.005 -0.0563  0.1206 -0.0906
    1GIB0    C3  842   1.730   1.787   0.241 -0.1088 -0.1210 -0.0895
    1GIB0   VS3  843   1.657   1.817   0.027 -0.0728 -0.0063 -0.0863
    1GIB0   NOH  844   1.921   2.486   1.638 -0.1977  0.1532  0.1814
    1GIB0   GLA  845   1.824   2.613   1.866  0.0243  0.3006 -0.0564
    1GIB0   GLB  846   2.198   2.398   1.619 -0.2279 -0.2325  0.1954
    1GIB0   C1A  847   2.004   2.622   2.257 -0.0486 -0.0679 -0.1564
    1GIB0   C2A  848   1.883   2.556   2.710 -0.0027 -0.2370 -0.3620
    1GIB0   C3A  849   1.917   2.500   3.211 -0.0748 -0.2934 -0.2411
    1GIB0   C1B  850   2.464   2.665   2.004  0.1269  0.1103  0.0026
    1GIB0   C2B  851   2.534   2.802   2.430  0.3765  0.1936  0.0575
    1GIB0   C3B  852   2.485   3.048   2.849 -0.1692 -0.1270 -0.2706
    1GIB0   C4B  853   2.529   3.347   3.185  0.0387 -0.0364 -0.0156
    1GIB0   C5B  854   2.658   3.579   3.542  0.3028 -0.2443  0.2512
    1GIB0   PO4  855   1.070   3.363   1.490 -0.1468  0.2889  0.0600
    1GIB0    A0  856   1.323   3.427   1.241 -0.2054 -0.1712  0.2145
    1GIB0    B0  857   1.100   3.657   1.058 -0.1261 -0.0653  0.2505
    1GIB0    C0  858   1.449   3.567   0.918 -0.0917 -0.0358  0.3163
    1GIB0   VS0  859   1.291   3.550   1.072 -0.1411 -0.0908  0.2604
    1GIB0    A1  860   0.939   3.311   1.023  0.2877 -0.0168 -0.2967
    1GIB0    B1  861   0.830   3.290   0.686  0.1219 -0.0127 -0.2444
    1GIB0    C1  862   0.875   3.596   0.842 -0.2762 -0.0147 -0.1146
    1GIB0    D1  863   0.737   3.736   0.760 -0.5523 -0.1882  0.0390
    1GIB0   VS1  864   0.881   3.399   0.851  0.0445 -0.0147 -0.2185
    1GIB0    A2  865   0.872   3.159   0.386 -0.0528 -0.0301 -0.3597
    1GIB0    B2  866   0.637   3.360   0.165 -0.1993 -0.0912 -0.2608
    1GIB0    C2  867   0.433   3.286   0.497  0.0296  0.0266 -0.0909
    1GIB0   VS2  868   0.647   3.268   0.349 -0.0742 -0.0316 -0.2371
    1GIB0    A3  869   0.448   3.449  -0.060  0.0083  0.5043  0.0604
    1GIB0    B3  870   0.207   3.596   0.008 -0.0750  0.1633  0.5571
    1GIB0    C3  871   0.138   3.320   0.175  0.1263 -0.4109 -0.2475
    1GIB0   VS3  872   0.264   3.455   0.041  0.0199  0.0856  0.1234
    1GIB0   NOH  873   1.466   3.367   1.804 -0.1086  0.1048  0.0803
    1GIB0   GLA  874   1.243   3.240   1.957 -0.1678 -0.0217  0.1083
    1GIB0   GLB  875   1.748   3.383   1.955  0.0028 -0.1716  0.1228
    1GIB0   C1A  876   1.161   3.105   2.379 -0.1998  0.1154 -0.0360
    1GIB0   C2A  877   0.937   2.855   2.694  0.1396 -0.3107 -0.0023
    1GIB0   C3A  878   1.161   2.520   3.004  0.3463 -0.0805  0.1184
    1GIB0   C1B  879   1.570   3.316   2.414 -0.1573  0.0712 -0.2751
    1GIB0   C2B  880   1.453   3.380   2.900 -0.1487 -0.1058  0.1058
    1GIB0   C3B  881   1.015   3.290   3.166  0.2470  0.0316  0.1648
    1GIB0   C4B  882   0.986   2.881   3.393 -0.0908 -0.0120  0.1102
    1GIB0   C5B  883   1.240   2.690   3.815 -0.0605  0.2494  0.0257
    1GIB0   PO4  884   2.239   1.076   0.965 -0.0059  0.3156  0.2792
    1GIB0    A0  885   2.087   0.735   1.017  0.4235 -0.0248 -0.1625
    1GIB0    B0  886   2.034   0.682   0.656 -0.3649  0.2493 -0.1060
    1GIB0    C0  887   1.898   0.428   0.913  0.1522  0.0791  0.0100
    1GIB0   VS0  888   2.006   0.615   0.862  0.0703  0.1012 -0.0862
    1GIB0    A1  889   1.781   0.920   0.794  0.1762 -0.0667 -0.0797
    1GIB0    B1  890   1.526   0.777   0.594 -0.0694  0.3012 -0.0383
    1GIB0    C1  891   1.851   0.802   0.478 -0.0372 -0.1975 -0.0802
    1GIB0    D1  892   1.847   0.827   0.267 -0.0251 -0.2062 -0.0815
    1GIB0   VS1  893   1.719   0.833   0.622  0.0232  0.0124 -0.0661
    1GIB0    A2  894   1.274   0.744   0.317  0.0171 -0.2161  0.0466
    1GIB0    B2  895   0.929   0.827   0.453  0.1027 -0.0921  0.1908
    1GIB0    C2  896   1.109   0.623   0.741  0.0283 -0.4601 -0.0170
    1GIB0   VS2  897   1.104   0.732   0.504  0.0494 -0.2561  0.0735
    1GIB0    A3  898   0.590   0.850   0.513 -0.3100 -0.0082 -0.2576
    1GIB0    B3  899   0.459   0.718   0.290 -0.1029 -0.1714 -0.2865
    1GIB0    C3  900   0.613   0.953   0.117 -0.0075 -0.2483 -0.3069
    1GIB0   VS3  901   0.554   0.840   0.307 -0.1401 -0.1426 -0.2837
    1GIB0   NOH  902   2.441   1.133   1.380  0.4721 -0.3732  0.0074
    1GIB0   GLA  903   2.501   1.167   1.676 -0.0874  0.3320  0.1302
    1GIB0   GLB  904   2.202   0.932   1.431  0.3596 -0.1416  0.2517
    1GIB0   C1A  905   2.533   1.334   2.095 -0.0390 -0.2670 -0.2609
    1GIB0   C2A  906   2.663   1.472   2.521 -0.0247  0.0698  0.0941
    1GIB0   C3A  907   2.651   1.530   2.974 -0.2207 -0.3206 -0.0999
    1GIB0   C1B  908   2.010   1.133   1.821  0.0083 -0.2237 -0.3835
    1GIB0   C2B  909   2.086   1.330   2.264  0.2172  0.3273  0.0762
    1GIB0   C3B  910   2.028   1.603   2.585  0.0380  0.1977  0.0582
    1GIB0   C4B  911   2.157   1.569   3.031 -0.2018 -0.0931  0.1807
    1GIB0   C5B  912   2.385   1.635   3.450 -0.2771 -0.0102 -0.2603
    1GIB0   PO4  913   2.677   2.693   1.398  0.0234  0.3330  0.2152
    1GIB0    A0  914   2.987   2.853   1.336  0.0180 -0.4226  0.0084
    1GIB0    B0  915   2.876   2.828   0.985 -0.1583 -0.0078  0.0299
    1GIB0    C0  916   3.151   3.079   1.086 -0.0800 -0.1534  0.1834
    1GIB0   VS0  917   3.005   2.920   1.136 -0.0734 -0.1946  0.0739
    1GIB0    A1  918   3.088   2.523   1.141  0.0735 -0.4562  0.1516
    1GIB0    B1  919   3.271   2.431   0.852 -0.0677  0.0390 -0.1070
    1GIB0    C1  920   2.963   2.587   0.828  0.0581  0.3715  0.3027
    1GIB0    D1  921   2.866   2.519   0.650 -0.0394  0.8566  0.1573
    1GIB0   VS1  922   3.108   2.513   0.940  0.0213 -0.0152  0.1158
    1GIB0    A2  923   3.417   2.513   0.591 -0.0279 -0.0456  0.0832
    1GIB0    B2  924   3.167   2.473   0.307 -0.0247  0.0455  0.0673
    1GIB0    C2  925   3.117   2.156   0.538 -0.0691  0.0014 -0.0028
    1GIB0   VS2  926   3.234   2.381   0.479 -0.0406  0.0004  0.0492
    1GIB0    A3  927   2.932   2.429   0.069  0.2204 -0.0037  0.4116
    1GIB0    B3  928   2.931   2.699  -0.037  0.1544 -0.0736  0.2299
    1GIB0    C3  929   2.796   2.768   0.256 -0.3716  0.0142 -0.0194
    1GIB0   VS3  930   2.886   2.632   0.096  0.0011 -0.0210  0.2073
    1GIB0   NOH  931   2.557   3.067   1.751 -0.4656  0.0199 -0.2719
    1GIB0   GLA  932   2.555   3.138   2.056 -0.0028 -0.0372 -0.1680
    1GIB0   GLB  933   2.835   2.911   1.748 -0.2765  0.2303 -0.5467
    1GIB0   C1A  934   2.713   3.317   2.452 -0.0289 -0.4089 -0.1481
    1GIB0   C2A  935   2.838   3.483   2.797 -0.0993 -0.0767 -0.0923
    1GIB0   C3A  936   2.950   3.847   3.140 -0.2716 -0.0324  0.0414
    1GIB0   C1B  937   3.023   2.863   2.239  0.2994  0.3205 -0.0999
    1GIB0   C2B  938   3.019   2.974   2.693  0.1935 -0.4003 -0.0329
    1GIB0   C3B  939   3.100   3.167   3.154 -0.1625 -0.1026 -0.1342
    1GIB0   C4B  940   3.188   3.510   3.462 -0.1329 -0.2707  0.1900
    1GIB0   C5B  941   3.057   3.540   3.903 -0.0748  0.0367 -0.1114
    1GIB0   PO4  942   3.398   0.835   1.386  0.0281  0.5204  0.1531
    1GIB0    A0  943   3.501   1.087   1.131  0.1048 -0.0353  0.0248
    1GIB0    B0  944   3.604   0.794   0.931 -0.0877  0.0634 -0.2243
    1GIB0    C0  945   3.700   1.151   0.819 -0.0752  0.1116 -0.0614
    1GIB0   VS0  946   3.602   1.011   0.960 -0.0194  0.0466 -0.0870
    1GIB0    A1  947   3.850   0.876   1.251  0.0110 -0.0696 -0.0027
    1GIB0    B1  948   4.122   1.033   1.086 -0.1464  0.0575 -0.1452
    1GIB0    C1  949   3.954   0.767   0.942 -0.1463  0.0281 -0.0915
    1GIB0    D1  950   4.091   0.657   0.821 -0.1839  0.0995 -0.2005
    1GIB0   VS1  951   3.975   0.892   1.093 -0.0939  0.0053 -0.0798
    1GIB0    A2  952   4.424   1.192   1.006  0.0437 -0.2315 -0.0941
    1GIB0    B2  953   4.414   1.338   0.656  0.1128  0.0311  0.0114
    1GIB0    C2  954   4.153   1.041   0.653  0.2900 -0.1272 -0.3313
    1GIB0   VS2  955   4.331   1.190   0.772  0.1488 -0.1092 -0.1380
    1GIB0    A3  956   4.275   1.385   0.355  0.0277 -0.1331  0.1050
    1GIB0    B3  957   4.478   1.469   0.166 -0.3026  0.3116 -0.0704
    1GIB0    C3  958   4.461   1.750   0.339 -0.2736  0.0385  0.3927
    1GIB0   VS3  959   4.405   1.535   0.287 -0.1828  0.0723  0.1424
    1GIB0   NOH  960   3.294   1.267   1.563 -0.0634  0.6521  0.3957
    1GIB0   GLA  961   3.333   1.534   1.683  0.1160  0.3563  0.1282
    1GIB0   GLB  962   3.022   1.212   1.635  0.0293 -0.0012 -0.0405
    1GIB0   C1A  963   3.479   1.661   2.145 -0.1931 -0.0355  0.0478
    1GIB0   C2A  964   3.604   1.667   2.631 -0.1246 -0.2955 -0.4441
    1GIB0   C3A  965   3.703   1.700   3.086 -0.2536 -0.2776 -0.1153
    1GIB0   C1B  966   3.059   1.433   2.076 -0.1508 -0.3133  0.0989
    1GIB0   C2B  967   3.135   1.451   2.590 -0.3784 -0.1404 -0.0844
    1GIB0   C3B  968   3.295   1.416   3.038  0.1279 -0.0730 -0.1030
    1GIB0   C4B  969   3.636   1.346   3.394 -0.0257  0.0108 -0.1644
    1GIB0   C5B  970   3.866   1.302   3.789 -0.0723  0.1295  0.1519
    1GIB0   PO4  971   4.437   3.831   1.292 -0.2103 -0.1106 -0.0205
    1GIB0    A0  972   4.687   3.702   1.117 -0.1825 -0.4171  0.2291
    1GIB0    B0  973   4.484   3.825   0.834  0.2053  0.1898  0.1960
    1GIB0    C0  974   4.822   3.649   0.771  0.3164  0.3711  0.2782
    1GIB0   VS0  975   4.664   3.725   0.907  0.1130  0.0479  0.2345
    1GIB0    A1  976   4.227   3.561   0.941  0.2648 -0.0584 -0.2094
    1GIB0    B1  977   4.079   3.470   0.632 -0.0654  0.0238 -0.0795
    1GIB0    C1  978   4.245   3.772   0.670 -0.0276  0.0154 -0.1740
    1GIB0    D1  979   4.154   3.916   0.543 -0.1675  0.0492 -0.0397
    1GIB0   VS1  980   4.184   3.601   0.748  0.0572 -0.0064 -0.1543
    1GIB0    A2  981   3.829   3.538   0.398  0.0444 -0.0206 -0.2545
    1GIB0    B2  982   3.812   3.218   0.193  0.2604 -0.3836  0.2731
    1GIB0    C2  983   4.188   3.246   0.315  0.3129  0.2278  0.0079
    1GIB0   VS2  984   3.943   3.334   0.302  0.2059 -0.0588  0.0088
    1GIB0    A3  985   3.769   2.901   0.055 -0.2450  0.2625 -0.3386
    1GIB0    B3  986   3.748   2.957  -0.229 -0.2014  0.3243 -0.3298
    1GIB0    C3  987   3.494   3.143  -0.130 -0.2520  0.2577 -0.3343
    1GIB0   VS3  988   3.671   3.000  -0.102 -0.2328  0.2815 -0.3342
    1GIB0   NOH  989   4.693   4.072   1.572 -0.1967  0.0877 -0.1240
    1GIB0   GLA  990   4.614   3.944   1.854  0.2309  0.0295 -0.1054
    1GIB0   GLB  991   4.848   3.811   1.516  0.0101  0.1526 -0.0340
    1GIB0   C1A  992   4.413   3.946   2.258 -0.1016  0.1592 -0.0271
    1GIB0   C2A  993   4.491   3.925   2.717 -0.1020 -0.2238  0.0878
    1GIB0   C3A  994   4.612   3.953   3.195  0.0942 -0.4496  0.0727
    1GIB0   C1B  995   4.829   3.536   1.944 -0.1470 -0.1446  0.3425
    1GIB0   C2B  996   4.723   3.593   2.410 -0.1171 -0.4181  0.0482
    1GIB0   C3B  997   4.647   3.403   2.866  0.0889 -0.1319 -0.1763
    1GIB0   C4B  998   4.622   3.293   3.339 -0.0657  0.0125  0.0523
    1GIB0   C5B  999   4.581   3.044   3.715 -0.1346 -0.2718 -0.0348
    1GIB0   PO4 1000   0.645   1.655   1.187  0.1959 -0.1510 -0.1211
    1GIB0    A0 1001   0.803   1.304   1.102 -0.1994 -0.0306  0.2886
    1GIB0    B0 1002   0.665   1.410   0.777  0.1802  0.2665  0.2162
    1GIB0    C0 1003   0.940   1.140   0.794  0.0931  0.1825  0.3000
    1GIB0   VS0 1004   0.802   1.285   0.891  0.0246  0.1395  0.2683
    1GIB0    A1 1005   0.361   1.278   0.950  0.0085  0.0138 -0.0043
    1GIB0    B1 1006   0.228   1.019   0.747  0.0942  0.1436 -0.2297
    1GIB0    C1 1007   0.409   1.280   0.610  0.1529  0.2349  0.0158
    1GIB0    D1 1008   0.336   1.318   0.413  0.2363  0.3624  0.0085
    1GIB0   VS1 1009   0.332   1.192   0.769  0.0852  0.1308 -0.0727
    1GIB0    A2 1010   0.029   0.905   0.547  0.0825  0.0550  0.1022
    1GIB0    B2 1011  -0.061   0.540   0.602  0.2329 -0.0809 -0.4844
    1GIB0    C2 1012   0.331   0.562   0.655  0.1286  0.1607  0.3131
    1GIB0   VS2 1013   0.100   0.669   0.601  0.1480  0.0450 -0.0230
    1GIB0    A3 1014  -0.165   0.217   0.727 -0.0480  0.1399  0.1883
    1GIB0    B3 1015  -0.374   0.203   0.927 -0.2763  0.0832 -0.0496
    1GIB0    C3 1016  -0.123   0.263   1.132 -0.5379  0.2352  0.2336
    1GIB0   VS3 1017  -0.221   0.228   0.929 -0.2874  0.1528  0.1241
    1GIB0   NOH 1018   0.861   1.549   1.625 -0.1361  0.0707 -0.1856
    1GIB0   GLA 1019   0.992   1.519   1.896 -0.0252 -0.1332  0.1737
    1GIB0   GLB 1020   0.669   1.360   1.615 -0.3009  0.1082  0.2958
    1GIB0   C1A 1021   1.204   1.704   2.184 -0.0121 -0.2641 -0.1607
    1GIB0   C2A 1022   1.564   1.688   2.566  0.0130 -0.4695  0.0820
    1GIB0   C3A 1023   1.554   1.593   3.010 -0.0475  0.1913  0.1476
    1GIB0   C1B 1024   0.647   1.218   2.086  0.1357  0.1737 -0.0629
    1GIB0   C2B 1025   0.586   1.391   2.540  0.0559  0.2420  0.3137
    1GIB0   C3B 1026   0.585   1.632   2.989 -0.2255 -0.4374  0.1429
    1GIB0   C4B 1027   0.568   1.636   3.503 -0.1953  0.2379  0.3113
    1GIB0   C5B 1028   0.397   1.540   3.961 -0.1078 -0.2509  0.0107
    1GIB0   PO4 1029   0.751   2.417   1.294 -0.0613  0.0496  0.0437
    1GIB0    A0 1030   1.092   2.417   1.352 -0.2402  0.4212  0.3664
    1GIB0    B0 1031   1.085   2.535   1.002  0.1443 -0.2041  0.1282
    1GIB0    C0 1032   1.416   2.530   1.200  0.0054 -0.2410  0.3642
    1GIB0   VS0 1033   1.198   2.494   1.185 -0.0301 -0.0080  0.2863
    1GIB0    A1 1034   0.972   2.190   1.001  0.2865  0.0440  0.1799
    1GIB0    B1 1035   1.191   1.990   0.808  0.0722 -0.2403  0.2249
    1GIB0    C1 1036   1.173   2.332   0.762  0.0844 -0.2914 -0.2019
    1GIB0    D1 1037   1.214   2.377   0.557 -0.1021 -0.5610 -0.3037
    1GIB0   VS1 1038   1.112   2.171   0.857  0.1477 -0.1626  0.0676
    1GIB0    A2 1039   1.381   1.859   0.526 -0.0502 -0.2786 -0.1667
    1GIB0    B2 1040   1.533   1.519   0.603  0.1272 -0.1651 -0.0070
    1GIB0    C2 1041   1.533   1.715   0.947  0.0579  0.0095 -0.1051
    1GIB0   VS2 1042   1.483   1.698   0.692  0.0449 -0.1447 -0.0929
    1GIB0    A3 1043   1.631   1.186   0.511  0.2136  0.0135  0.1075
    1GIB0    B3 1044   1.485   1.112   0.272  0.2053 -0.0607  0.1354
    1GIB0    C3 1045   1.224   1.169   0.465  0.2107  0.1216  0.0903
    1GIB0   VS3 1046   1.447   1.156   0.416  0.2099  0.0248  0.1111
    1GIB0   NOH 1047   0.688   2.509   1.742 -0.3403 -0.2019  0.0116
    1GIB0   GLA 1048   0.496   2.330   1.875  0.0614 -0.1630  0.0111
    1GIB0   GLB 1049   0.986   2.381   1.720  0.0363 -0.0848  0.1440
    1GIB0   C1A 1050   0.471   2.091   2.278 -0.3752  0.3617  0.1537
    1GIB0   C2A 1051   0.487   2.096   2.800  0.1391  0.2067  0.1738
    1GIB0   C3A 1052   0.593   2.036   3.253  0.5373 -0.0116 -0.1421
    1GIB0   C1B 1053   0.967   2.149   2.184  0.3442 -0.0633  0.1441
    1GIB0   C2B 1054   0.896   2.340   2.613  0.0991  0.1660 -0.0842
    1GIB0   C3B 1055   0.601   2.562   2.967  0.2639  0.4140 -0.1354
    1GIB0   C4B 1056   0.530   2.597   3.409  0.0412 -0.1940 -0.0090
    1GIB0   C5B 1057   0.725   2.853   3.842  0.0167 -0.0455 -0.0762
    1GIB0   PO4 1058   2.233   3.802   1.285  0.0727 -0.4060  0.3031
    1GIB0    A0 1059   2.124   3.409   1.298 -0.2530  0.1270 -0.0179
    1GIB0    B0 1060   2.312   3.414   0.981  0.0234  0.1350  0.1433
    1GIB0    C0 1061   2.146   3.088   1.105 -0.3376  0.2007 -0.1515
    1GIB0   VS0 1062   2.194   3.304   1.128 -0.1891  0.1542 -0.0087
    1GIB0    A1 1063   2.000   3.603   0.895  0.0637  0.0713  0.0309
    1GIB0    B1 1064   1.899   3.501   0.571 -0.0626  0.3311 -0.0150
    1GIB0    C1 1065   2.234   3.519   0.658 -0.0357 -0.0779 -0.0154
    1GIB0    D1 1066   2.348   3.568   0.485  0.0132 -0.1221  0.0040
    1GIB0   VS1 1067   2.044   3.541   0.708 -0.0116  0.1082  0.0002
    1GIB0    A2 1068   1.686   3.441   0.290  0.2039 -0.3306 -0.1482
    1GIB0    B2 1069   1.786   3.103   0.147  0.3655 -0.3783  0.0730
    1GIB0    C2 1070   2.117   3.254   0.303  0.2378 -0.2337  0.2074
    1GIB0   VS2 1071   1.863   3.266   0.247  0.2691 -0.3142  0.0440
    1GIB0    A3 1072   1.914   2.826  -0.004 -0.1008 -0.0971 -0.0588
    1GIB0    B3 1073   2.193   2.808   0.070 -0.1434 -0.2362  0.0731
    1GIB0    C3 1074   2.215   3.082  -0.112  0.0317 -0.0957  0.2993
    1GIB0   VS3 1075   2.107   2.905  -0.015 -0.0708 -0.1430  0.1045
    1GIB0   NOH 1076   2.134   3.823   1.699  0.0431 -0.0777  0.1227
    1GIB0   GLA 1077   1.950   3.889   1.913 -0.0116 -0.0114 -0.0987
    1GIB0   GLB 1078   2.382   3.959   1.735 -0.1108  0.2472  0.4606
    1GIB0   C1A 1079   1.931   3.664   2.345 -0.3647  0.0121 -0.0675
    1GIB0   C2A 1080   1.946   3.504   2.803  0.2187  0.0434  0.0693
    1GIB0   C3A 1081   2.006   3.452   3.257 -0.0977  0.1848  0.0449
    1GIB0   C1B 1082   2.461   4.008   2.235  0.1329 -0.1914  0.0162
    1GIB0   C2B 1083   2.268   4.102   2.617 -0.0960 -0.0945  0.1326
    1GIB0   C3B 1084   2.249   4.353   2.994  0.2265  0.2036  0.2049
    1GIB0   C4B 1085   2.150   4.696   3.240 -0.3144 -0.1301  0.0710
    1GIB0   C5B 1086   2.268   4.855   3.688  0.0291  0.2027  0.1313
    1GIB0   PO4 1087   1.401   4.025   1.060 -0.1195  0.2566 -0.1057
    1GIB0    A0 1088   1.360   4.373   1.033  0.0973  0.3004  0.1036
    1GIB0    B0 1089   1.186   4.282   0.721 -0.0293  0.0989  0.2306
    1GIB0    C0 1090   1.141   4.633   0.875 -0.1649  0.1151  0.1551
    1GIB0   VS0 1091   1.229   4.429   0.876 -0.0323  0.1714  0.1631
    1GIB0    A1 1092   1.547   4.287   0.688  0.0601 -0.2024  0.1227
    1GIB0    B1 1093   1.637   4.267   0.346  0.2737 -0.2590  0.1811
    1GIB0    C1 1094   1.322   4.173   0.455  0.0945  0.0620 -0.0439
    1GIB0    D1 1095   1.250   4.017   0.329  0.0136  0.1520 -0.1101
    1GIB0   VS1 1096   1.502   4.242   0.497  0.1428 -0.1331  0.0866
    1GIB0    A2 1097   1.773   4.133   0.001 -0.1328  0.0854 -0.1609
    1GIB0    B2 1098   2.129   4.258   0.050 -0.0412 -0.0802 -0.3880
    1GIB0    C2 1099   1.895   4.561   0.153  0.1581 -0.0528  0.0030
    1GIB0   VS2 1100   1.932   4.317   0.068 -0.0053 -0.0159 -0.1820
    1GIB0    A3 1101   2.424   4.267  -0.028  0.4912  0.2281  0.2084
    1GIB0    B3 1102   2.487   3.995  -0.108 -0.2191  0.0611  0.1522
    1GIB0    C3 1103   2.449   3.937   0.215 -0.0749  0.1610  0.1881
    1GIB0   VS3 1104   2.453   4.066   0.027  0.0657  0.1501  0.1829
    1GIB0   NOH 1105   1.195   3.923   1.420  0.0296  0.1059 -0.2414
    1GIB0   GLA 1106   1.373   3.903   1.649  0.3734  0.1344 -0.2242
    1GIB0   GLB 1107   0.919   3.895   1.522  0.0578  0.0068 -0.3004
    1GIB0   C1A 1108   1.494   3.737   2.078  0.3198 -0.2954 -0.2178
    1GIB0   C2A 1109   1.430   3.823   2.564  0.1661 -0.2322 -0.1743
    1GIB0   C3A 1110   1.498   3.903   3.015  0.0619 -0.0150  0.3619
    1GIB0   C1B 1111   0.976   3.817   2.037  0.3371 -0.1109  0.1145
    1GIB0   C2B 1112   0.950   3.615   2.459  0.3028 -0.1603 -0.1822
    1GIB0   C3B 1113   1.015   3.757   2.942 -0.2386  0.1472  0.1617
    1GIB0   C4B 1114   1.031   3.700   3.422  0.0441  0.0501 -0.0865
    1GIB0   C5B 1115   0.989   3.734   3.879  0.0179 -0.1216  0.1594
    1GIB0   PO4 1116   2.783   1.857   1.233 -0.1045  0.0400 -0.0045
    1GIB0    A0 1117   2.515   1.836   1.057  0.0728  0.0529 -0.1971
    1GIB0    B0 1118   2.550   1.469   1.041  0.1920  0.0542 -0.0022
    1GIB0    C0 1119   2.236   1.642   0.898  0.1938 -0.1112 -0.2124
    1GIB0   VS0 1120   2.434   1.649   0.999  0.1528 -0.0014 -0.1373
    1GIB0    A1 1121   2.880   1.561   0.929  0.1740  0.1573 -0.3783
    1GIB0    B1 1122   2.951   1.294   0.707 -0.2126 -0.0427 -0.2705
    1GIB0    C1 1123   2.710   1.263   0.953  0.2627  0.1440  0.2383
    1GIB0    D1 1124   2.701   1.060   1.016  0.4173  0.2002  0.4532
    1GIB0   VS1 1125   2.847   1.373   0.863  0.0747  0.0862 -0.1368
    1GIB0    A2 1126   2.881   1.080   0.449  0.0026  0.0425 -0.0107
    1GIB0    B2 1127   2.939   0.751   0.630 -0.1313  0.0848  0.1105
    1GIB0    C2 1128   3.222   0.995   0.761  0.0815 -0.0352 -0.1171
    1GIB0   VS2 1129   3.014   0.942   0.613 -0.0157  0.0307 -0.0058
    1GIB0    A3 1130   2.945   0.473   0.784 -0.1718 -0.0411 -0.1836
    1GIB0    B3 1131   2.821   0.510   1.044 -0.0537 -0.1616 -0.1085
    1GIB0    C3 1132   3.038   0.758   1.064 -0.0057 -0.2066 -0.0671
    1GIB0   VS3 1133   2.935   0.580   0.964 -0.0771 -0.1364 -0.1197
    1GIB0   NOH 1134   2.443   2.084   1.419 -0.0400  0.0089  0.1834
    1GIB0   GLA 1135   2.648   2.140   1.659  0.2623 -0.0698  0.1181
    1GIB0   GLB 1136   2.213   1.996   1.538 -0.1117  0.1592  0.3717
    1GIB0   C1A 1137   2.727   1.992   2.097  0.0844  0.1273 -0.0519
    1GIB0   C2A 1138   2.931   1.886   2.514 -0.0251 -0.1699 -0.1342
    1GIB0   C3A 1139   2.993   1.847   2.995 -0.0337 -0.0353 -0.0651
    1GIB0   C1B 1140   2.245   2.116   1.984 -0.3476 -0.0891 -0.1242
    1GIB0   C2B 1141   2.474   2.302   2.425 -0.0746  0.0326  0.2490
    1GIB0   C3B 1142   2.393   2.557   2.846  0.2087  0.2315  0.3993
    1GIB0   C4B 1143   2.383   2.503   3.266 -0.2093  0.0094  0.2041
    1GIB0   C5B 1144   2.234   2.436   3.730 -0.2048  0.1955  0.1513
    1GIB0   PO4 1145   3.334   4.417   1.348 -0.1396 -0.0808  0.1637
    1GIB0    A0 1146   3.712   4.351   1.407 -0.0274 -0.2818  0.0857
    1GIB0    B0 1147   3.741   4.592   1.129  0.0540  0.1542  0.4588
    1GIB0    C0 1148   4.056   4.473   1.318  0.0594 -0.5534  0.0400
    1GIB0   VS0 1149   3.836   4.472   1.285  0.0287 -0.2270  0.1948
    1GIB0    A1 1150   3.712   4.231   0.975  0.1319 -0.1943  0.4042
    1GIB0    B1 1151   3.903   4.317   0.690  0.0363 -0.0743  0.3756
    1GIB0    C1 1152   3.666   4.534   0.819  0.0845 -0.1252  0.5508
    1GIB0    D1 1153   3.584   4.649   0.660  0.0322 -0.0540  0.6286
    1GIB0   VS1 1154   3.760   4.361   0.828  0.0842 -0.1312  0.4435
    1GIB0    A2 1155   4.011   4.375   0.343 -0.0131  0.0669 -0.1677
    1GIB0    B2 1156   4.304   4.168   0.218 -0.0434  0.0830 -0.2660
    1GIB0    C2 1157   4.407   4.288   0.581 -0.1581 -0.3707 -0.0766
    1GIB0   VS2 1158   4.241   4.277   0.380 -0.0715 -0.0736 -0.1701
    1GIB0    A3 1159   4.551   4.012   0.052  0.0587 -0.0321 -0.5259
    1GIB0    B3 1160   4.799   4.074   0.188 -0.0491 -0.2363 -0.2246
    1GIB0    C3 1161   4.700   4.384   0.135  0.0692 -0.1521  0.0313
    1GIB0   VS3 1162   4.683   4.157   0.125  0.0262 -0.1402 -0.2398
    1GIB0   NOH 1163   3.233   4.351   1.786 -0.0106 -0.0849 -0.2828
    1GIB0   GLA 1164   3.470   4.378   1.904 -0.0244  0.1774  0.1082
    1GIB0   GLB 1165   3.036   4.553   1.753  0.1962 -0.1950 -0.4277
    1GIB0   C1A 1166   3.696   4.355   2.279  0.1479 -0.0930  0.1442
    1GIB0   C2A 1167   4.049   4.409   2.590  0.1087  0.1041 -0.1199
    1GIB0   C3A 1168   4.293   4.277   3.007 -0.0695  0.0204 -0.0872
    1GIB0   C1B 1169   2.800   4.665   2.142 -0.1715 -0.0824 -0.3163
    1GIB0   C2B 1170   2.762   5.084   2.442 -0.4928  0.3790 -0.0410
    1GIB0   C3B 1171   2.862   5.443   2.723  0.1901  0.0577  0.0610
    1GIB0   C4B 1172   2.844   5.644   3.139 -0.2375 -0.3413 -0.2451
    1GIB0   C5B 1173   2.899   6.037   3.394 -0.1976 -0.0699 -0.1645
    1GIB0   PO4 1174   2.554   0.348   1.436 -0.2335 -0.1086  0.3554
    1GIB0    A0 1175   2.269   0.507   1.393 -0.0149 -0.0035 -0.4076
    1GIB0    B0 1176   2.163   0.190   1.237 -0.1131 -0.1094 -0.1312
    1GIB0    C0 1177   1.901   0.443   1.363 -0.0359 -0.0555 -0.0780
    1GIB0   VS0 1178   2.111   0.380   1.331 -0.0546 -0.0561 -0.2056
    1GIB0    A1 1179   2.326   0.385   0.955 -0.1931 -0.0082 -0.0448
    1GIB0    B1 1180   2.172   0.234   0.674  0.0703  0.0428 -0.2203
    1GIB0    C1 1181   2.206   0.064   0.973 -0.5096  0.1025 -0.1086
    1GIB0    D1 1182   2.228  -0.144   0.932 -0.6356  0.0686 -0.0095
    1GIB0   VS1 1183   2.235   0.227   0.867 -0.2108  0.0457 -0.1246
    1GIB0    A2 1184   1.899   0.065   0.578 -0.2527  0.2019 -0.0088
    1GIB0    B2 1185   2.013  -0.294   0.527 -0.0078  0.2437  0.2239
    1GIB0    C2 1186   2.308  -0.069   0.390 -0.1785  0.3589  0.0398
    1GIB0   VS2 1187   2.073  -0.099   0.498 -0.1463  0.2682  0.0850
    1GIB0    A3 1188   2.138  -0.572   0.550  0.0221 -0.1635  0.1035
    1GIB0    B3 1189   2.298  -0.587   0.792  0.2854 -0.0162 -0.0568
    1GIB0    C3 1190   2.482  -0.363   0.633 -0.0950  0.1768 -0.2379
    1GIB0   VS3 1191   2.306  -0.507   0.658  0.0708 -0.0010 -0.0637
    1GIB0   NOH 1192   2.501   0.344   1.879  0.2422 -0.3973  0.0403
    1GIB0   GLA 1193   2.360   0.419   2.153 -0.1639  0.1099 -0.1787
    1GIB0   GLB 1194   2.527   0.648   1.773 -0.0662  0.2085 -0.0908
    1GIB0   C1A 1195   2.125   0.286   2.515 -0.0064  0.0550  0.2736
    1GIB0   C2A 1196   1.728   0.145   2.784 -0.0041 -0.0099  0.0038
    1GIB0   C3A 1197   1.648  -0.155   3.133  0.0632 -0.0463  0.0730
    1GIB0   C1B 1198   2.358   0.903   2.140 -0.0317  0.0925 -0.1974
    1GIB0   C2B 1199   2.343   1.070   2.595 -0.3697 -0.0863 -0.1082
    1GIB0   C3B 1200   2.190   1.103   3.032 -0.0311  0.0176 -0.4112
    1GIB0   C4B 1201   1.983   0.991   3.450  0.2117  0.3974 -0.0460
    1GIB0   C5B 1202   1.696   0.986   3.821 -0.1533 -0.0661  0.2480
    1GIB0   PO4 1203   3.875   3.317   1.049  0.2927 -0.0537 -0.0818
    1GIB0    A0 1204   3.576   3.130   1.044  0.2960  0.1578 -0.1727
    1GIB0    B0 1205   3.826   2.891   0.915  0.0787 -0.1843  0.0253
    1GIB0    C0 1206   3.449   2.810   0.895 -0.0015  0.1702  0.0467
    1GIB0   VS0 1207   3.617   2.943   0.951  0.1244  0.0479 -0.0336
    1GIB0    A1 1208   3.811   3.160   0.609  0.2629  0.0442  0.1902
    1GIB0    B1 1209   3.553   2.966   0.462  0.1570  0.3146  0.0122
    1GIB0    C1 1210   3.826   2.817   0.613 -0.0041  0.0274  0.0260
    1GIB0    D1 1211   3.867   2.632   0.515 -0.1162  0.0435 -0.0523
    1GIB0   VS1 1212   3.730   2.981   0.561  0.1386  0.1287  0.0761
    1GIB0    A2 1213   3.316   2.881   0.206 -0.0100  0.0257  0.1122
    1GIB0    B2 1214   3.026   3.096   0.323 -0.1935 -0.1546 -0.0047
    1GIB0    C2 1215   3.142   2.893   0.642  0.2109  0.3671  0.1947
    1GIB0   VS2 1216   3.161   2.957   0.390  0.0025  0.0794  0.1008
    1GIB0    A3 1217   2.683   3.240   0.403  0.3194  0.1593 -0.2573
    1GIB0    B3 1218   2.523   3.076   0.225 -0.0923  0.2350  0.0305
    1GIB0    C3 1219   2.720   3.208  -0.004  0.0574 -0.4302 -0.2445
    1GIB0   VS3 1220   2.642   3.175   0.208  0.0948 -0.0120 -0.1571
    1GIB0   NOH 1221   3.873   3.114   1.450 -0.0886 -0.0926  0.3242
    1GIB0   GLA 1222   3.861   3.326   1.661 -0.2488  0.1015 -0.3571
    1GIB0   GLB 1223   3.832   2.871   1.658 -0.0779  0.1439 -0.2282
    1GIB0   C1A 1224   3.802   3.526   2.089 -0.0244 -0.1235  0.0952
    1GIB0   C2A 1225   3.619   3.643   2.542  0.4205 -0.4591 -0.1035
    1GIB0   C3A 1226   3.430   3.652   3.014  0.2648  0.1673  0.0078
    1GIB0   C1B 1227   4.153   2.927   2.075 -0.1581  0.2668 -0.0650
    1GIB0   C2B 1228   4.142   2.661   2.498  0.2593 -0.2034  0.0082
    1GIB0   C3B 1229   3.987   2.650   2.998  0.2225 -0.1930 -0.0812
    1GIB0   C4B 1230   4.088   2.518   3.457  0.3083 -0.2425  0.0153
    1GIB0   C5B 1231   4.052   2.628   3.940 -0.3034  0.4771  0.1315
    1GIB0   PO4 1232   3.431   2.239   1.313 -0.0458  0.1968  0.1195
    1GIB0    A0 1233   3.241   1.920   1.391  0.2752 -0.2495  0.0407
    1GIB0    B0 1234   3.322   1.832   1.042  0.2212 -0.1882  0.0123
    1GIB0    C0 1235   3.151   1.575   1.274  0.0286 -0.1466 -0.0818
    1GIB0   VS0 1236   3.238   1.775   1.236  0.1750 -0.1948 -0.0096
    1GIB0    A1 1237   3.083   2.090   0.993  0.1852  0.4248 -0.2474
    1GIB0    B1 1238   2.836   1.955   0.778 -0.0345 -0.0099  0.2549
    1GIB0    C1 1239   3.154   1.820   0.794 -0.0529 -0.0498  0.2847
    1GIB0    D1 1240   3.204   1.738   0.604 -0.2354 -0.4913  0.4126
    1GIB0   VS1 1241   3.024   1.955   0.855  0.0326  0.1217  0.0974
    1GIB0    A2 1242   2.654   1.714   0.617 -0.3728  0.0783 -0.2098
    1GIB0    B2 1243   2.871   1.521   0.373 -0.0181 -0.0237  0.1742
    1GIB0    C2 1244   2.892   1.899   0.257  0.3111 -0.0425  0.1632
    1GIB0   VS2 1245   2.806   1.712   0.416 -0.0266  0.0041  0.0425
    1GIB0    A3 1246   3.115   1.486   0.195 -0.1090 -0.0706 -0.0172
    1GIB0    B3 1247   3.105   1.648  -0.046  0.0176  0.0022  0.0254
    1GIB0    C3 1248   2.807   1.507  -0.075  0.0502 -0.0233 -0.1969
    1GIB0   VS3 1249   3.009   1.547   0.024 -0.0137 -0.0305 -0.0629
    1GIB0   NOH 1250   3.461   2.219   1.717 -0.0137 -0.2454 -0.0348
    1GIB0   GLA 1251   3.603   2.108   1.962 -0.1862  0.3690  0.1933
    1GIB0   GLB 1252   3.616   2.475   1.721  0.3249  0.3892  0.0302
    1GIB0   C1A 1253   3.523   2.124   2.403  0.3323  0.0501  0.0411
    1GIB0   C2A 1254   3.308   2.121   2.801  0.0958  0.0652  0.0958
    1GIB0   C3A 1255   3.181   2.201   3.257 -0.1729 -0.0216  0.2722
    1GIB0   C1B 1256   3.728   2.623   2.178  0.2564  0.4209 -0.1201
    1GIB0   C2B 1257   3.510   2.651   2.602  0.2919 -0.1662  0.2836
    1GIB0   C3B 1258   3.315   2.650   2.952  0.1665  0.0601 -0.1081
    1GIB0   C4B 1259   3.312   2.658   3.414  0.3655  0.0026 -0.0438
    1GIB0   C5B 1260   3.322   2.732   3.872  0.4965  0.1937  0.1906
    1POPC   NC3 1261   0.312   1.980   1.483  0.0562  0.2279 -0.0889
    1POPC   PO4 1262   0.016   1.898   1.703 -0.1441 -0.2634  0.1067
    1POPC   GL1 1263  -0.039   1.905   2.089 -0.3827  0.0399 -0.0888
    1POPC   GL2 1264  -0.261   2.078   2.075  0.0989  0.0904 -0.1710
    1POPC   C1A 1265   0.070   1.795   2.407  0.1281  0.3094 -0.2864
    1POPC   D2A 1266   0.150   1.407   2.810 -0.0131  0.0200 -0.2369
    1POPC   C3A 1267   0.450   1.178   3.057 -0.1043  0.1044 -0.0242
    1POPC   C4A 1268   0.370   1.028   3.545  0.1520 -0.1314 -0.0265
    1POPC   C1B 1269  -0.510   2.259   2.328 -0.1858  0.2692 -0.0431
    1POPC   C2B 1270  -0.661   2.245   2.746 -0.2028 -0.1934  0.0379
    1POPC   C3B 1271  -0.800   2.281   3.207 -0.0640  0.2344 -0.1395
    1POPC   C4B 1272  -0.859   2.409   3.701 -0.1555  0.0504  0.1695
    1POPC   NC3 1273   3.481   2.761   1.359  0.1739 -0.4404 -0.2333
    1POPC   PO4 1274   3.419   3.069   1.525  0.4296 -0.2353  0.1178
    1POPC   GL1 1275   3.160   3.118   1.883  0.1090 -0.1176 -0.1572
    1POPC   GL2 1276   3.274   2.859   1.874 -0.0672 -0.3107 -0.2765
    1POPC   C1A 1277   3.524   3.097   2.184  0.0569  0.1169 -0.3029
    1POPC   D2A 1278   3.905   3.190   2.506 -0.4469  0.0452  0.1407
    1POPC   C3A 1279   3.892   3.383   2.923 -0.4689  0.0535  0.5158
    1POPC   C4A 1280   4.323   3.618   3.146  0.1833  0.2069  0.1036
    1POPC   C1B 1281   3.306   2.538   2.032  0.0416  0.0770  0.0041
    1POPC   C2B 1282   3.074   2.375   2.287 -0.0484 -0.4438 -0.3522
    1POPC   C3B 1283   2.892   2.322   2.739  0.2091 -0.0974  0.1280
    1POPC   C4B 1284   2.822   2.632   3.079 -0.1885 -0.1268  0.0894
    1POPC   NC3 1285   3.838   0.739   1.640  0.1293 -0.2557 -0.1516
    1POPC   PO4 1286   3.586   0.411   1.647  0.0857  0.1946 -0.0149
    1POPC   GL1 1287   3.437   0.322   2.020  0.2012 -0.0645 -0.0892
    1POPC   GL2 1288   3.686   0.321   2.131 -0.1618  0.6381 -0.0284
    1POPC   C1A 1289   3.283   0.378   2.350  0.1456 -0.1436 -0.2363
    1POPC   D2A 1290   3.189   0.415   2.846 -0.0095 -0.0022  0.0324
    1POPC   C3A 1291   3.217   0.254   3.268  0.2458  0.0508 -0.1743
    1POPC   C4A 1292   3.235   0.466   3.708  0.0059 -0.0972  0.0113
    1POPC   C1B 1293   3.779   0.304   2.485  0.0528  0.2435  0.2552
    1POPC   C2B 1294   3.720   0.463   2.869 -0.0619  0.0122  0.1279
    1POPC   C3B 1295   3.998   0.489   3.247  0.0461  0.0456 -0.2568
    1POPC   C4B 1296   4.268   0.140   3.366 -0.0349 -0.2720  0.2236
    1POPC   NC3 1297   3.076   0.472   1.412  0.1615  0.2865 -0.2639
    1POPC   PO4 1298   3.082   0.621   1.790  0.0858  0.0230  0.1608
    1POPC   GL1 1299   3.454   0.875   1.847 -0.1634 -0.0373  0.1107
    1POPC   GL2 1300   3.295   1.006   2.004 -0.0385  0.1785  0.1460
    1POPC   C1A 1301   3.697   0.756   2.187  0.2686 -0.3029 -0.2900
    1POPC   D2A 1302   4.041   0.761   2.539  0.1017  0.2145  0.6238
    1POPC   C3A 1303   4.256   0.406   2.730 -0.2685  0.0421 -0.0474
    1POPC   C4A 1304   4.610   0.254   2.997  0.0949 -0.1391  0.1037
    1POPC   C1B 1305   3.190   0.896   2.335  0.1024  0.2593 -0.3165
    1POPC   C2B 1306   3.347   0.912   2.705  0.0027  0.0620  0.1848
    1POPC   C3B 1307   3.470   0.733   3.183 -0.1423  0.4127 -0.2066
    1POPC   C4B 1308   3.688   0.787   3.593  0.3187 -0.0198 -0.0683
    1POPC   NC3 1309   4.342   1.360   1.416 -0.3381  0.0442 -0.3214
    1POPC   PO4 1310   4.700   1.417   1.485  0.0413 -0.2506  0.2383
    1POPC   GL1 1311   4.847   1.430   1.871  0.4633  0.0904 -0.0505
    1POPC   GL2 1312   4.907   1.634   1.954 -0.2656  0.1010  0.1502
    1POPC   C1A 1313   4.590   1.304   2.286 -0.3239 -0.2114 -0.2261
    1POPC   D2A 1314   4.162   1.370   2.537  0.1485  0.2307  0.3567
    1POPC   C3A 1315   4.169   1.333   3.016  0.1330  0.1971 -0.1118
    1POPC   C4A 1316   4.355   1.267   3.506 -0.1393 -0.0323 -0.1922
    1POPC   C1B 1317   5.199   1.648   2.199  0.1612 -0.5204  0.0235
    1POPC   C2B 1318   5.356   1.778   2.596  0.0629 -0.3610 -0.3282
    1POPC   C3B 1319   5.537   1.908   3.033 -0.0571 -0.2221  0.4482
    1POPC   C4B 1320   5.558   1.869   3.510 -0.2789 -0.0665 -0.1074
    1POPC   NC3 1321   0.146   0.487   1.445  0.2119  0.2507  0.3132
    1POPC   PO4 1322   0.501   0.613   1.491  0.0041  0.0912 -0.0562
    1POPC   GL1 1323   0.568   0.609   1.825  0.2488 -0.2317 -0.1170
    1POPC   GL2 1324   0.811   0.540   1.987  0.2814  0.2945  0.4835
    1POPC   C1A 1325   0.467   0.751   2.243 -0.0820 -0.1245  0.2324
    1POPC   D2A 1326   0.737   0.851   2.660 -0.3757  0.2597  0.1402
    1POPC   C3A 1327   0.394   0.667   2.948 -0.1729  0.0988 -0.3112
    1POPC   C4A 1328   0.297   0.521   3.460 -0.1485  0.2369  0.0328
    1POPC   C1B 1329   0.871   0.463   2.370  0.1149  0.3465  0.2990
    1POPC   C2B 1330   1.077   0.346   2.724 -0.0234 -0.0643  0.1448
    1POPC   C3B 1331   1.450   0.506   3.073 -0.3373 -0.1444  0.2539
    1POPC   C4B 1332   1.729   0.492   3.444  0.0694 -0.0526 -0.2445
    1POPC   NC3 1333   4.207   3.732   1.731  0.2347  0.3174  0.0079
    1POPC   PO4 1334   4.143   4.122   1.668  0.1519  0.0880  0.0159
    1POPC   GL1 1335   4.103   4.299   2.126 -0.1649 -0.0340  0.0891
    1POPC   GL2 1336   3.937   4.004   2.100  0.1498  0.1117  0.1619
    1POPC   C1A 1337   4.523   4.390   2.427  0.1861  0.1495 -0.0857
    1POPC   D2A 1338   4.766   4.290   2.854 -0.1001 -0.1224  0.1348
    1POPC   C3A 1339   4.766   4.422   3.355  0.2209 -0.0269 -0.1065
    1POPC   C4A 1340   4.821   4.538   3.817 -0.0051 -0.0556  0.2548
    1POPC   C1B 1341   3.934   3.989   2.488  0.1614 -0.1835 -0.2838
    1POPC   C2B 1342   3.991   3.896   2.934 -0.1550  0.3128 -0.2279
    1POPC   C3B 1343   3.814   3.606   3.310  0.0290 -0.0411 -0.3056
    1POPC   C4B 1344   3.609   3.343   3.739  0.2125 -0.1105  0.1507
    1POPC   NC3 1345   1.414   0.718   1.038  0.2273 -0.0483 -0.3168
    1POPC   PO4 1346   1.318   0.735   1.421  0.0976  0.0995  0.1834
    1POPC   GL1 1347   1.391   1.002   1.692  0.2949 -0.1243  0.0199
    1POPC   GL2 1348   1.468   0.804   1.809 -0.0912  0.2600 -0.0398
    1POPC   C1A 1349   1.185   1.101   2.138  0.1357 -0.1712  0.1667
    1POPC   D2A 1350   1.093   1.363   2.614 -0.0715  0.5177  0.0792
    1POPC   C3A 1351   1.002   1.399   2.987  0.2125  0.2829  0.2106
    1POPC   C4A 1352   0.809   1.260   3.462  0.2667  0.1641 -0.0313
    1POPC   C1B 1353   1.680   0.793   2.154  0.0508  0.2491  0.3170
    1POPC   C2B 1354   2.006   0.752   2.453  0.0173 -0.3303 -0.0957
    1POPC   C3B 1355   2.256   0.616   2.867  0.3022  0.0175  0.1273
    1POPC   C4B 1356   2.350   0.694   3.325  0.1942  0.3031 -0.0468
    1POPC   NC3 1357   3.969   0.103   1.822  0.1068  0.0933  0.3982
    1POPC   PO4 1358   4.214   0.352   1.657  0.2031  0.2134  0.1284
    1POPC   GL1 1359   4.141   0.593   1.907 -0.1168 -0.0956  0.0987
    1POPC   GL2 1360   4.167   0.345   2.165 -0.3696 -0.0407 -0.4148
    1POPC   C1A 1361   4.439   0.832   2.190 -0.0492 -0.0683 -0.1054
    1POPC   D2A 1362   4.583   0.953   2.612 -0.1860 -0.3137 -0.1513
    1POPC   C3A 1363   4.400   0.837   3.008 -0.0070  0.1194  0.0166
    1POPC   C4A 1364   4.266   0.821   3.474 -0.2009 -0.0772 -0.1927
    1POPC   C1B 1365   4.558   0.387   2.339  0.4439  0.0673 -0.1056
    1POPC   C2B 1366   4.877   0.264   2.498  0.0555  0.0494 -0.3019
    1POPC   C3B 1367   5.071   0.191   2.937 -0.0952 -0.1316  0.0776
    1POPC   C4B 1368   5.450   0.246   3.337  0.1803 -0.3455 -0.4424
    1POPC   NC3 1369   2.228   2.845   1.512  0.1615 -0.0549  0.2764
    1POPC   PO4 1370   1.974   3.104   1.610  0.2812  0.1744 -0.1646
    1POPC   GL1 1371   2.054   3.117   2.017 -0.1522 -0.4972 -0.0775
    1POPC   GL2 1372   2.194   3.429   1.953 -0.0686  0.1254  0.1917
    1POPC   C1A 1373   2.035   3.059   2.484  0.4247 -0.1792 -0.1698
    1POPC   D2A 1374   2.017   3.062   2.969 -0.1046  0.1315 -0.1922
    1POPC   C3A 1375   2.255   2.956   3.353 -0.3068 -0.2754 -0.1174
    1POPC   C4A 1376   2.341   3.093   3.813 -0.0710 -0.1376  0.2485
    1POPC   C1B 1377   2.374   3.533   2.254  0.1765  0.2512  0.0381
    1POPC   C2B 1378   2.389   3.612   2.658 -0.0712 -0.1805 -0.0193
    1POPC   C3B 1379   2.492   3.848   3.035  0.0266 -0.0180 -0.4826
    1POPC   C4B 1380   2.265   3.916   3.463  0.0502 -0.2397 -0.0917
    1POPC   NC3 1381   1.538   2.212   0.916 -0.1295  0.1154  0.1278
    1POPC   PO4 1382   1.437   2.045   1.254  0.1719 -0.0275  0.1677
    1POPC   GL1 1383   1.359   1.785   1.612 -0.1815 -0.5294  0.0763
    1POPC   GL2 1384   1.201   1.962   1.785 -0.5509  0.1173  0.2104
    1POPC   C1A 1385   1.588   1.509   1.783  0.2250 -0.0363  0.1672
    1POPC   D2A 1386   1.624   1.325   2.242  0.2058  0.1895 -0.2188
    1POPC   C3A 1387   1.744   1.159   2.596  0.2305  0.2510 -0.1113
    1POPC   C4A 1388   1.774   0.868   3.022  0.3286 -0.1081 -0.1445
    1POPC   C1B 1389   1.426   2.124   2.076 -0.0509  0.3246  0.0816
    1POPC   C2B 1390   1.532   2.187   2.474  0.1190 -0.0401 -0.1869
    1POPC   C3B 1391   1.570   2.108   2.977 -0.0625  0.1690  0.3457
    1POPC   C4B 1392   1.539   1.905   3.439  0.1093  0.1487 -0.3845
    1POPC   NC3 1393   1.447   2.403   1.605  0.0521  0.0025 -0.1852
    1POPC   PO4 1394   1.432   2.801   1.631 -0.1910 -0.0267 -0.0149
    1POPC   GL1 1395   1.072   2.798   1.932 -0.0857  0.0074 -0.1939
    1POPC   GL2 1396   1.260   2.552   2.033 -0.2704 -0.2862  0.1952
    1POPC   C1A 1397   0.699   2.733   2.161 -0.2374 -0.4078  0.0940
    1POPC   D2A 1398   0.452   2.597   2.513  0.0203 -0.1236 -0.1486
    1POPC   C3A 1399   0.167   2.799   2.780  0.0604  0.0765 -0.0837
    1POPC   C4A 1400   0.035   2.806   3.243  0.1535  0.3363  0.2219
    1POPC   C1B 1401   1.341   2.647   2.415 -0.0797 -0.1559  0.0661
    1POPC   C2B 1402   1.464   2.789   2.766 -0.0131  0.1539  0.0112
    1POPC   C3B 1403   1.504   2.910   3.268  0.0417  0.1931  0.1430
    1POPC   C4B 1404   1.483   3.087   3.673 -0.0586  0.5768  0.3256
    1POPC   NC3 1405   2.060   1.359   1.305 -0.1643  0.2657  0.3271
    1POPC   PO4 1406   2.340   1.584   1.422  0.5061 -0.1707  0.0623
    1POPC   GL1 1407   2.030   1.650   1.694 -0.1494  0.0825  0.1668
    1POPC   GL2 1408   2.314   1.702   1.863  0.0289 -0.2403 -0.3479
    1POPC   C1A 1409   1.884   1.782   2.129 -0.0046  0.1122  0.1923
    1POPC   D2A 1410   2.036   2.151   2.429 -0.0177  0.0986  0.4378
    1POPC   C3A 1411   2.086   2.126   2.889 -0.0534 -0.1095  0.0710
    1POPC   C4A 1412   2.124   2.030   3.375 -0.1334 -0.0084 -0.0580
    1POPC   C1B 1413   2.353   1.751   2.219 -0.1587 -0.4049 -0.1468
    1POPC   C2B 1414   2.472   1.900   2.628  0.3965  0.2758 -0.0081
    1POPC   C3B 1415   2.535   2.065   3.018  0.1033  0.2708 -0.1968
    1POPC   C4B 1416   2.710   2.098   3.417  0.4613  0.0047 -0.1457
    1POPC   NC3 1417   0.999   0.043   1.314  0.2578  0.0436 -0.1181
    1POPC   PO4 1418   1.318  -0.118   1.477 -0.0107 -0.3752  0.4914
    1POPC   GL1 1419   1.244   0.028   1.894 -0.0043  0.1732  0.0796
    1POPC   GL2 1420   1.227  -0.279   1.953 -0.0405  0.0737 -0.2743
    1POPC   C1A 1421   1.353   0.390   2.160  0.1581 -0.0019  0.3512
    1POPC   D2A 1422   1.426   0.647   2.600  0.3537  0.0090  0.1879
    1POPC   C3A 1423   1.209   0.933   2.864 -0.1090 -0.0355  0.0297
    1POPC   C4A 1424   0.828   0.877   3.151  0.1067 -0.0035 -0.1244
    1POPC   C1B 1425   1.386  -0.285   2.334 -0.0155 -0.4082 -0.1441
    1POPC   C2B 1426   1.272  -0.200   2.749  0.1578 -0.1361 -0.0332
    1POPC   C3B 1427   1.089  -0.264   3.237 -0.1484 -0.0627 -0.1504
    1POPC   C4B 1428   1.345  -0.449   3.583  0.0181  0.4272  0.2175
    1POPC   NC3 1429   2.013   0.627   1.865  0.1687  0.0943  0.2434
    1POPC   PO4 1430   2.076   0.210   1.765  0.0191  0.1068 -0.0127
    1POPC   GL1 1431   2.191  -0.206   1.927  0.2724 -0.1662  0.1568
    1POPC   GL2 1432   2.499  -0.086   1.908  0.1192 -0.2162 -0.2483
    1POPC   C1A 1433   1.981  -0.155   2.253  0.0981  0.0026 -0.1314
    1POPC   D2A 1434   1.791  -0.355   2.644  0.1668 -0.2318  0.2129
    1POPC   C3A 1435   1.976  -0.555   3.004  0.0278 -0.0639 -0.1484
    1POPC   C4A 1436   1.793  -0.595   3.452  0.2206 -0.1221  0.0054
    1POPC   C1B 1437   2.425  -0.056   2.287  0.1446 -0.4708  0.2542
    1POPC   C2B 1438   2.621  -0.012   2.604 -0.2676 -0.0590  0.1405
    1POPC   C3B 1439   2.611   0.258   3.008 -0.4547 -0.0253  0.0049
    1POPC   C4B 1440   2.738   0.311   3.460  0.0434 -0.1253  0.2921
    1POPC   NC3 1441   4.022   2.461   1.847  0.1547  0.2507 -0.1870
    1POPC   PO4 1442   3.985   2.121   1.636  0.3922 -0.0618 -0.2038
    1POPC   GL1 1443   3.899   1.849   1.819 -0.2447  0.0903 -0.3387
    1POPC   GL2 1444   3.793   1.568   1.750  0.2284  0.0215 -0.1383
    1POPC   C1A 1445   3.977   1.766   2.298  0.0541 -0.1122 -0.0314
    1POPC   D2A 1446   4.186   1.834   2.740  0.1928 -0.3356  0.1142
    1POPC   C3A 1447   4.463   1.773   3.099  0.0778 -0.2334  0.1717
    1POPC   C4A 1448   4.533   1.747   3.607  0.0094 -0.3560  0.2398
    1POPC   C1B 1449   3.600   1.292   1.955 -0.1598 -0.1259  0.3351
    1POPC   C2B 1450   3.685   1.233   2.352 -0.0235 -0.1108 -0.1627
    1POPC   C3B 1451   3.709   1.198   2.825  0.1119  0.1632 -0.2300
    1POPC   C4B 1452   3.898   0.941   3.147 -0.1872 -0.0320  0.0825
    1POPC   NC3 1453   2.493   3.473   1.622  0.1069 -0.1868  0.2236
    1POPC   PO4 1454   2.815   3.565   1.866  0.0421 -0.0580  0.0981
    1POPC   GL1 1455   2.854   3.709   2.263 -0.0188 -0.0863 -0.0277
    1POPC   GL2 1456   3.112   3.565   2.288  0.2936  0.3207 -0.0536
    1POPC   C1A 1457   2.853   3.944   2.623  0.0490 -0.0400  0.1066
    1POPC   D2A 1458   3.016   4.336   2.966  0.1568  0.1130 -0.0521
    1POPC   C3A 1459   2.633   4.278   3.238  0.3358 -0.1275  0.0291
    1POPC   C4A 1460   2.602   4.365   3.690 -0.0083  0.0115 -0.0726
    1POPC   C1B 1461   3.238   3.416   2.582  0.4647 -0.1039 -0.1365
    1POPC   C2B 1462   3.460   3.186   2.750  0.0258 -0.1297  0.0347
    1POPC   C3B 1463   3.615   3.036   3.160 -0.0504 -0.2116 -0.1160
    1POPC   C4B 1464   3.775   2.858   3.623  0.0235 -0.0519  0.0918
    1POPC   NC3 1465   0.416   4.083   1.141  0.1439  0.0514  0.1168
    1POPC   PO4 1466   0.495   4.451   1.333 -0.0023 -0.0530 -0.2822
    1POPC   GL1 1467   0.454   4.680   1.746  0.0401 -0.0288  0.3960
    1POPC   GL2 1468   0.364   4.419   1.819 -0.4128  0.0255 -0.4866
    1POPC   C1A 1469   0.658   4.615   2.131  0.0129 -0.2274 -0.0357
    1POPC   D2A 1470   0.878   4.247   2.383  0.0240 -0.1203  0.0071
    1POPC   C3A 1471   0.771   4.219   2.854  0.2479 -0.1850  0.1207
    1POPC   C4A 1472   0.612   4.062   3.284  0.2646 -0.2983 -0.2005
    1POPC   C1B 1473   0.340   4.323   2.153 -0.1594  0.2020  0.2448
    1POPC   C2B 1474   0.435   4.063   2.472  0.2154  0.4017 -0.5727
    1POPC   C3B 1475   0.499   3.766   2.817  0.1987  0.0813 -0.2512
    1POPC   C4B 1476   0.596   3.554   3.238  0.2505 -0.2646  0.1086
    1W        W 1477   3.431   0.387   1.071 -0.1260  0.2183 -0.2297
    1W        W 1478   4.399   0.185   0.272 -0.0625 -0.2597  0.1004
    1W        W 1479   3.972   0.312   0.455  0.2669 -0.2006  0.1903
    1W        W 1480   3.865   1.708   7.015 -0.0359 -0.1105 -0.1307
    1W        W 1481   4.457   0.954   5.676 -0.2386  0.0634  0.1644
    1W        W 1482   1.100   1.053   0.042  0.0474  0.2581 -0.1047
    1W        W 1483   2.353   2.929   5.657 -0.2832  0.1035  0.1303
    1W        W 1484   3.032   0.236   0.101  0.1884 -0.0645 -0.2203
    1W        W 1485   0.232   2.096   6.290 -0.2731 -0.1992  0.1817
    1W        W 1486   2.837   1.202   5.650 -0.5397  0.3759 -0.1231
    1W        W 1487   2.870   3.067   6.347 -0.4054  0.0330 -0.0039
    1W        W 1488   3.034   3.500   6.556 -0.0029 -0.0332  0.0247
    1W        W 1489   4.441   2.990   6.064  0.2757  0.3756 -0.2799
    1W        W 1490   2.644   0.007   7.058  0.2465  0.1069 -0.0139
    1W        W 1491   4.125   2.173   0.290 -0.1545 -0.0523 -0.2621
    1W        W 1492   2.190   3.524   6.479  0.0456  0.0444 -0.2611
    1W        W 1493   1.573   0.311   1.744  0.1023 -0.3177  0.0632
    1W        W 1494   0.550   2.347   6.594 -0.3063  0.0694  0.1898
    1W        W 1495   0.030   1.315   6.724  0.1505 -0.1470 -0.0798
    1W        W 1496   1.482   0.270   1.241 -0.0041 -0.1638 -0.1926
    1W        W 1497   3.193   1.251   7.015  0.0724 -0.0154  0.0147
    1W        W 1498   0.947   0.490   1.158 -0.1169  0.0685 -0.2329
    1W        W 1499   0.394   1.719   0.210  0.0412  0.1552  0.2087
    1W        W 1500   3.725   2.383   5.421  0.1128 -0.2585 -0.0704
    1W        W 1501   2.293   0.868   6.106 -0.2419 -0.0039  0.2430
    1W        W 1502   2.811   0.866   1.434 -0.3174 -0.0640  0.1502
    1W        W 1503   4.046   1.466   0.922 -0.0030  0.0721  0.0499
    1W        W 1504   2.603   4.099   1.060 -0.0501 -0.1743  0.0221
    1W        W 1505   1.624   1.585   1.329  0.2200  0.1230 -0.0523
    1W        W 1506   4.013   2.557   7.331  0.1996  0.0923 -0.0000
    1W        W 1507   1.010   2.749   6.242  0.2911  0.1265 -0.0622
    1W        W 1508   3.639   1.652   0.757 -0.1075 -0.1553 -0.1252
    1W        W 1509   1.788   3.582   1.581  0.1935  0.0681  0.0207
    1W        W 1510   0.052   0.642   0.172  0.2921  0.1518 -0.1305
    1W        W 1511   4.308   0.829   1.460 -0.3735 -0.0688  0.1573
    1W        W 1512   0.429   0.691   7.156  0.2843 -0.4164 -0.2591
    1W        W 1513   0.497   1.046   1.316  0.1612  0.0413 -0.2361
    1W        W 1514   1.600   2.198   0.322 -0.0409  0.0778 -0.0479
    1W        W 1515   2.392   2.616   0.472  0.2632 -0.2121  0.1552
    1W        W 1516   3.603   3.917   1.604  0.2847  0.1629  0.0162
    1W        W 1517   2.561   3.133   1.174 -0.1009  0.1750 -0.1246
    1W        W 1518   3.493   0.034   0.236  0.0795 -0.0846 -0.2461
    1W        W 1519   4.095   3.974   7.082 -0.0155  0.1438  0.1098
    1W        W 1520   4.455   3.344   5.736  0.1390 -0.1869 -0.3458
    1W        W 1521   1.734   0.854   6.831  0.0007 -0.0106 -0.0790
    1W        W 1522   1.089   3.786   6.223 -0.0728  0.0366 -0.1333
    1W        W 1523   3.619   2.399   0.216  0.2988  0.0410  0.1229
    1W        W 1524   4.090   1.035   0.105  0.1993 -0.0612  0.0965
    1W        W 1525   0.905   1.000   1.732  0.1984 -0.0548 -0.0178
    1W        W 1526   3.937   0.465   1.240 -0.1978 -0.0226  0.0206
    1W        W 1527   0.678   0.794   0.936 -0.0914  0.1674  0.2613
    1W        W 1528   0.968   1.250   6.966  0.1172  0.1736  0.1056
    1W        W 1529   3.059   0.976   5.270 -0.0389 -0.2208  0.2397
    1W        W 1530   3.737   1.235   7.061  0.1499  0.1743 -0.1171
    1W        W 1531   1.927   1.474   6.953 -0.0970 -0.2356 -0.1642
    1W        W 1532   4.153   4.070   1.000 -0.0124 -0.1459 -0.0002
    1W        W 1533   1.535   0.765   6.367 -0.0799  0.2071  0.2082
    1W        W 1534   2.789   1.950   7.163  0.0291 -0.0870 -0.0053
    1W        W 1535   3.672   1.128   5.389  0.0642  0.0143  0.1531
    1W        W 1536   2.109   1.505   0.370 -0.2408  0.0972  0.0753
    1W        W 1537   2.201   0.195   7.117 -0.3256  0.1272  0.2032
    1W        W 1538   2.277   1.783   6.527 -0.1677 -0.0288 -0.1593
    1W        W 1539   4.475   1.816   5.945 -0.0718 -0.0192  0.3092
    1W        W 1540   4.298   1.632   6.392  0.0514 -0.1999 -0.1314
    1W        W 1541   3.365   4.147   0.584  0.0863  0.1564  0.3637
    1W        W 1542   1.041   4.304   6.070 -0.1406  0.0087  0.2857
    1W        W 1543   2.207   4.331   1.448 -0.1480 -0.2179 -0.1537
    1W        W 1544   1.126   2.829   0.594 -0.1199  0.2626 -0.1594
    1W        W 1545   4.400   3.646   6.277  0.1042  0.3292 -0.0490
    1W        W 1546   1.376   2.883   5.468 -0.3334 -0.1923 -0.0163
    1W        W 1547   3.234   2.081   0.073  0.1093 -0.2103 -0.0821
    1W        W 1548   3.084   3.065   7.104  0.0075 -0.1212 -0.0749
    1W        W 1549   1.142   2.108   0.169  0.2857  0.0534 -0.0482
    1W        W 1550   4.460   1.749   1.137 -0.1413  0.1472 -0.0759
    1W        W 1551   1.109   4.432   0.293  0.1990  0.2766 -0.0287
    1W        W 1552   1.223   3.201   0.132 -0.1558 -0.0102  0.1277
    1W        W 1553   2.304   2.978   6.558  0.0495  0.0532  0.2141
    1W        W 1554   0.344   1.181   5.950 -0.4347 -0.2203 -0.1821
    1W        W 1555   2.305   1.935   5.612  0.2666  0.0642 -0.1145
    1W        W 1556   0.295   4.064   0.620 -0.2066  0.3673 -0.0540
    1W        W 1557   3.131   0.088   0.565 -0.0735 -0.0785  0.1634
    1W        W 1558   0.357   0.335   1.056 -0.1781 -0.1808  0.0696
    1W        W 1559   1.754   3.307   1.071 -0.0727  0.1547 -0.2362
    1W        W 1560   1.760   2.047   1.677  0.1584  0.0788 -0.0225
    1W        W 1561   3.911   2.531   1.373  0.0007 -0.2300  0.4775
    1W        W 1562   0.170   0.058   6.548  0.0757  0.0028  0.0894
    1W        W 1563   3.143   2.508   1.649 -0.0300  0.0800  0.2555
    1W        W 1564   1.982   3.731   0.171  0.0959  0.0053  0.1740
    1W        W 1565   4.490   2.106   0.629  0.1205  0.0876 -0.1421
    1W        W 1566   2.835   0.963   2.017  0.1382  0.0113  0.2194
    1W        W 1567   1.806   0.019   1.030 -0.0474 -0.0293 -0.1008
    1W        W 1568   4.170   3.124   7.241  0.1448  0.1676 -0.0094
    1W        W 1569   1.621   2.172   6.799  0.0329  0.3375  0.0450
    1W        W 1570   2.582   3.895   6.430 -0.1648  0.2409 -0.2849
    1W        W 1571   0.845   1.129   5.991  0.3102  0.2993  0.1644
    1W        W 1572   3.367   0.557   0.625 -0.2499  0.1773 -0.0073
    1W        W 1573   1.979   2.729   6.228  0.0588 -0.1279  0.2025
    1W        W 1574   2.733   4.291   0.300 -0.0999  0.0871  0.0492
    1W        W 1575   2.107   0.692   6.481  0.3083 -0.0853 -0.0554
    1W        W 1576   3.757   1.604   6.427 -0.0635 -0.0022 -0.0299
    1W        W 1577   2.295   0.713   7.158 -0.0260 -0.1590  0.0822
    1W        W 1578   0.038   2.312   5.524  0.2772 -0.0629 -0.0987
    1W        W 1579   3.671   3.595   7.329 -0.5151 -0.4558 -0.0381
    1W        W 1580   4.030   1.720   1.404 -0.2710 -0.3265 -0.0006
    1W        W 1581   2.647   0.020   5.846  0.1548 -0.3442  0.1103
    1W        W 1582   0.299   0.104   0.663 -0.3355 -0.3452  0.1677
    1W        W 1583   1.389   4.124   6.960 -0.0205  0.2103 -0.1587
    1W        W 1584   3.099   1.530   5.369  0.0170  0.0168 -0.1242
    1W        W 1585   1.429   1.262   0.956  0.0129  0.0861 -0.1432
    1W        W 1586   2.692   3.737   0.673  0.2089 -0.1079 -0.1345
    1W        W 1587   0.519   0.943   6.308  0.1768 -0.0671 -0.0701
    1W        W 1588   0.879   0.617   0.084 -0.2495 -0.0600 -0.1950
    1W        W 1589   1.503   3.233   0.629  0.1419  0.1992  0.4225
    1W        W 1590   1.044   2.206   6.460 -0.1233 -0.1249  0.3099
    1W        W 1591   3.078   1.984   1.798 -0.2232  0.1509  0.1583
    1W        W 1592   3.202   2.662   6.262 -0.1144  0.0898  0.0806
    1W        W 1593   0.273   2.467   1.364  0.0349  0.1437 -0.0482
    1W        W 1594   1.459   1.210   7.077  0.0343 -0.0429  0.0427
    1W        W 1595   2.794   1.573   1.709 -0.0772 -0.0936  0.0020
    1W        W 1596   2.726   0.391   0.417 -0.3143  0.2097 -0.0226
    1W        W 1597   0.965   2.832   1.484 -0.0160 -0.0526 -0.0901
    1W        W 1598   0.139   3.117   6.533  0.2302 -0.1081  0.3975
    1W        W 1599   1.792   0.955   1.262 -0.4516  0.1447 -0.1875
    1W        W 1600   2.746   3.506   6.137 -0.1493  0.0311 -0.2522
    1W        W 1601   3.379   3.508   1.172  0.0677 -0.0013 -0.0048
    1W        W 1602   0.694   2.297   0.221 -0.2428 -0.1871  0.3344
    1W        W 1603   1.703   4.288   1.888  0.0996 -0.3759 -0.1401
    1W        W 1604   1.896   4.033   0.943  0.4248  0.0602 -0.0432
    1W        W 1605   0.435   2.513   7.141  0.1747  0.1985 -0.0370
    1W        W 1606   3.124   3.466   0.080 -0.2048  0.1099 -0.2032
    1W        W 1607   0.132   0.451   1.912 -0.1702 -0.1589 -0.0273
    1W        W 1608   3.421   0.134   7.119 -0.1639  0.0115  0.0018
    1W        W 1609   2.435   1.585   6.964 -0.1789 -0.0226 -0.2211
    1W        W 1610   3.664   0.459   6.136  0.0970 -0.2857 -0.0567
    1W        W 1611   3.861   2.520   5.947 -0.0234 -0.0514  0.0869
    1W        W 1612   2.645   3.987   5.926 -0.4138  0.4771 -0.1591
    1W        W 1613   0.386   2.143   0.986 -0.1542  0.0709 -0.0776
    1W        W 1614   0.562   2.855   0.588 -0.3898  0.0236 -0.0596
    1W        W 1615   3.766   3.792   0.799  0.0569 -0.0085 -0.2431
    1W        W 1616   3.720   1.313   5.877 -0.0956 -0.2163 -0.0508
    1W        W 1617   0.518   3.390   6.773 -0.2031 -0.3425  0.0544
    1W        W 1618   1.551   2.914   2.136 -0.0038 -0.2264 -0.0629
    1W        W 1619   0.710   0.854   6.714 -0.0605  0.1766  0.0493
    1W        W 1620   1.265   2.095   5.969 -0.1343 -0.0738 -0.2010
    1W        W 1621   3.645   0.552   6.598 -0.0868  0.0289 -0.1376
    1W        W 1622   0.774   0.353   0.596 -0.2429  0.1696 -0.0813
    1W        W 1623   0.452   2.018   6.964  0.0408 -0.2103 -0.4762
    1W        W 1624   0.142   0.022   5.831 -0.1216  0.0148 -0.0917
    1W        W 1625   2.488   1.296   0.576 -0.0831 -0.3605 -0.0526
    1W        W 1626   4.323   2.560   0.463  0.0407 -0.0331  0.1880
    1W        W 1627   1.596   2.732   0.766  0.0629 -0.1558  0.1125
    1W        W 1628   1.423   3.650   5.876  0.0206 -0.1070 -0.0064
    1W        W 1629   1.334   1.135   6.104  0.1142  0.0308 -0.3142
    1W        W 1630   1.761   2.847   1.209 -0.1774  0.0046  0.0674
    1W        W 1631   1.772   2.456   7.160  0.1381 -0.0071  0.0683
    1W        W 1632   4.469   4.467   1.449 -0.0534 -0.1591  0.0757
    1W        W 1633   2.730   0.472   7.203  0.1781 -0.2730 -0.2177
    1W        W 1634   1.330   3.259   6.955 -0.2924  0.0906  0.0882
    1W        W 1635   1.859   0.522   7.192 -0.0182  0.1965  0.0565
    1W        W 1636   0.185   2.158   0.149  0.0652  0.2706  0.1010
    1W        W 1637   1.480   0.352   0.732 -0.2853 -0.2173  0.2421
    1W        W 1638   0.066   4.368   0.986 -0.1240 -0.1260 -0.0815
    1W        W 1639   1.889   1.940   0.701  0.1235 -0.1644 -0.1697
    1W        W 1640   2.620   2.643   6.271 -0.0153  0.0185 -0.0230
    1W        W 1641   0.983   3.075   6.655 -0.1051 -0.1216 -0.4504
    1W        W 1642   1.325   0.308   6.421 -0.3043  0.1204 -0.1998
    1W        W 1643   0.680   3.650   1.210 -0.4441 -0.1322  0.0094
    1W        W 1644   1.953   1.893   1.184  0.0797 -0.1918 -0.0705
    1W        W 1645   1.474   2.494   6.433 -0.1514 -0.0183  0.2259
    1W        W 1646   3.771   1.011   6.598  0.0678  0.3212  0.0781
    1W        W 1647   1.185   4.222   6.507 -0.1548  0.2150 -0.1158
    1W        W 1648   1.530   3.766   0.010  0.0963 -0.0774  0.1821
    1W        W 1649   2.832   3.288   0.827  0.0721 -0.2555  0.0972
    1W        W 1650   0.074   0.770   6.149 -0.3034  0.1474 -0.2969
    1W        W 1651   4.206   4.243   5.719  0.0211  0.1533  0.4407
    1W        W 1652   0.494   3.320   0.925  0.1186  0.0320  0.0130
    1W        W 1653   3.361   2.626   7.185  0.1140 -0.1184 -0.2365
    1W        W 1654   0.342   0.124   7.090 -0.2645 -0.1751  0.2263
    1W        W 1655   2.393   2.224   6.412  0.1693  0.0789  0.0617
    1W        W 1656   1.744   1.384   0.066  0.1453 -0.1642 -0.1310
    1W        W 1657   4.220   1.843   7.316 -0.0540  0.3952  0.1697
    1W        W 1658   3.844   4.376   7.263 -0.2619  0.1117 -0.1064
    1W        W 1659   2.925   0.252   6.748 -0.0676 -0.0860 -0.0595
    1W        W 1660   2.829   4.309   1.484  0.1804 -0.0041  0.2130
    1W        W 1661   4.300   1.493   1.902  0.0750 -0.1028  0.0292
    1W        W 1662   0.668   4.344   0.804 -0.0438 -0.2286  0.0113
    1W        W 1663   1.617   1.291   6.590  0.0634 -0.0186  0.1755
    1W        W 1664   4.052   2.044   6.235  0.3426 -0.0035  0.0562
    1W        W 1665   3.437   0.531   0.134 -0.1756  0.0164  0.2483
    1W        W 1666   3.114   2.271   6.981 -0.0704 -0.0790 -0.0029
    1W        W 1667   4.356   4.429   7.200 -0.0324  0.2522 -0.1747
    1W        W 1668   3.737   3.774   6.298  0.2120  0.3126  0.1295
    1W        W 1669   2.649   2.293   1.023  0.1732 -0.5467 -0.1790
    1W        W 1670   0.809   4.044   0.457 -0.0193  0.2082 -0.0657
    1W        W 1671   3.134   4.346   6.777  0.2186  0.1354  0.3767
    1W        W 1672   2.818   2.524   5.781  0.0862 -0.0119 -0.2426
    1W        W 1673   3.887   2.489   6.454  0.1266  0.0264 -0.3591
    1W        W 1674   3.393   1.331   0.473 -0.0290 -0.1486 -0.1805
    1W        W 1675   2.024   2.373   5.529  0.2706  0.1208  0.0651
    1W        W 1676   3.803   3.997   0.277 -0.2083  0.1923  0.2019
    1W        W 1677   4.257   1.378   7.151 -0.3334 -0.3522  0.2796
    1W        W 1678   3.381   3.868   6.659 -0.1141 -0.1630  0.3109
    1W        W 1679   1.189   1.006   6.627  0.1530  0.1288  0.4016
    1W        W 1680   1.771   4.137   1.406  0.0561  0.1167 -0.2493
    1W        W 1681   3.734   2.429   0.919 -0.2285 -0.0561 -0.1457
    1W        W 1682   1.654   1.983   5.130  0.3083  0.2254 -0.1513
    1W        W 1683   3.102   1.087   6.570  0.3822 -0.0570  0.1355
    1W        W 1684   1.580   1.645   6.176 -0.1562 -0.3866  0.0656
    1W        W 1685   0.061   2.870   7.029  0.0183 -0.0707 -0.1173
    1W        W 1686   3.184   0.229   6.303  0.2291 -0.1588  0.4103
    1W        W 1687   2.760   2.154   6.093 -0.2684 -0.1728 -0.0181
    1W        W 1688   3.107   3.854   6.239  0.2266  0.1904  0.2169
    1W        W 1689   4.402   2.348   6.524  0.0653  0.1509  0.1940
    1W        W 1690   1.438   0.500   5.893 -0.1788  0.0331  0.1054
    1W        W 1691   0.712   3.448   6.005  0.3492  0.0477 -0.0838
    1W        W 1692   2.515   0.857   0.246  0.4867 -0.1021 -0.0331
    1W        W 1693   2.335   2.478   5.877 -0.0476  0.3397  0.1070
    1W        W 1694   0.116   1.837   6.677 -0.0320  0.3127  0.4471
    1W        W 1695   2.956   0.094   1.095  0.1211 -0.1545 -0.1199
    1W        W 1696   3.077   1.153   1.183 -0.0447 -0.1737  0.2824
    1W        W 1697   0.154   1.111   0.036 -0.0972  0.2308 -0.3343
    1W        W 1698   3.138   4.217   5.770  0.0019  0.0637  0.1305
    1W        W 1699   1.889   0.767   5.841  0.1042  0.1914  0.2794
    1W        W 1700   0.781   0.392   7.018 -0.2077  0.0592  0.1243
    1W        W 1701   3.396   3.415   6.898 -0.1248 -0.0682 -0.0407
    1W        W 1702   2.838   1.015   7.265 -0.0349  0.3225  0.1528
    1W        W 1703   1.140   1.674   1.168 -0.0323 -0.1456 -0.1234
    1W        W 1704   0.448   0.297   0.168 -0.0295 -0.1020 -0.1681
    1W        W 1705   4.084   1.045   2.000  0.0390  0.0393  0.0755
    1W        W 1706   0.016   3.395   0.607  0.0764 -0.0275  0.3144
    1W        W 1707   1.313   3.006   1.128 -0.1050 -0.0831 -0.0385
    1W        W 1708   3.242   1.493   5.911  0.3194 -0.2187  0.2121
    1W        W 1709   1.248   1.528   0.239  0.0685 -0.0717 -0.1455
    1W        W 1710   4.467   0.401   6.929 -0.0277  0.1751 -0.0842
    1W        W 1711   0.259   1.676   0.736  0.1673  0.3140  0.2687
    1W        W 1712   2.223   1.309   6.571 -0.3239 -0.0010 -0.0523
    1W        W 1713   1.881   1.381   0.848 -0.2025 -0.0107  0.1054
    1W        W 1714   2.377   4.345   6.234  0.0712  0.3247 -0.3020
    1W        W 1715   0.582   3.968   1.904  0.1611 -0.3296  0.2179
    1W        W 1716   1.141   1.251   1.412  0.0026  0.1637  0.0566
    1W        W 1717   2.612   0.045   0.731 -0.0607 -0.2675  0.1662
    1W        W 1718   0.833   3.016   5.399 -0.1254 -0.1654  0.0651
    1W        W 1719   4.193   3.010   0.743  0.1513  0.0150 -0.0125
    1W        W 1720   0.905   4.044   1.073 -0.1417  0.0370  0.2519
    1W        W 1721   2.307   3.102   0.629  0.0405 -0.1926 -0.1805
    1W        W 1722   0.817   2.898   0.975 -0.2079 -0.1041  0.0297
    1W        W 1723   2.976   3.309   1.432 -0.0175  0.1306 -0.2778
    1W        W 1724   0.785   1.313   0.381 -0.1704  0.2514  0.2432
    1W        W 1725   2.525   2.400   5.386 -0.0006 -0.1314  0.0259
    1W        W 1726   3.890   3.770   1.272 -0.1065 -0.0315 -0.0682
    1W        W 1727   3.504   3.295   5.643  0.0640  0.1783  0.0732
    1W        W 1728   0.388   0.493   6.699 -0.0424 -0.1048 -0.1845
    1W        W 1729   0.742   2.427   0.708 -0.0026  0.0867 -0.1213
    1W        W 1730   1.107   1.540   0.703  0.3925 -0.1124  0.1803
    1W        W 1731   2.151   0.481   0.248  0.0269 -0.1187  0.2475
    1W        W 1732   3.599   1.543   1.217 -0.1456 -0.0199  0.1016
    1W        W 1733   3.475   0.087   5.861 -0.2249  0.1755 -0.1655
    1W        W 1734   2.503   0.713   0.703  0.3884 -0.2906 -0.2073
    1W        W 1735   0.189   1.605   7.123  0.1150 -0.2280 -0.3144
    1W        W 1736   0.305   3.379   1.428 -0.0773 -0.1127  0.0050
    1W        W 1737   1.589   3.828   0.591 -0.0650 -0.0736 -0.0991
    1W        W 1738   1.755   0.304   6.772  0.1567  0.1056 -0.2589
    1W        W 1739   3.805   1.208   1.537  0.0596 -0.1047 -0.1488
    1W        W 1740   3.567   2.089   7.085  0.3760  0.0265  0.1508
    1W        W 1741   1.780   3.394   7.159 -0.1949 -0.0383 -0.2261
    1W        W 1742   2.409   2.071   0.616  0.0451  0.1064  0.0549
    1W        W 1743   3.330   3.541   1.822 -0.4569  0.0197  0.0092
    1W        W 1744   2.155   4.437   5.764 -0.4674  0.4289 -0.0357
    1W        W 1745   2.539   3.428   5.624 -0.2493 -0.0075 -0.0055
    1W        W 1746   4.380   2.350   5.995 -0.1968 -0.0943 -0.1521
    1W        W 1747   3.706   0.620   7.048  0.2021  0.0665 -0.2139
    1W        W 1748   4.136   2.718   5.595 -0.1977 -0.0197 -0.3029
    1W        W 1749   0.475   3.688   0.392 -0.1748 -0.1694  0.1665
    1W        W 1750   3.994   3.838   5.870 -0.1066  0.0691 -0.2565
    1W        W 1751   4.311   3.339   1.341  0.0599  0.2764  0.0290
    1W        W 1752   2.145   3.903   6.018 -0.0559  0.0705  0.1708
    1W        W 1753   2.883   4.286   6.255 -0.1355  0.0902  0.0173
    1W        W 1754   2.359   3.535   7.311  0.1153  0.0602 -0.0540
    1W        W 1755   1.512   2.735   0.274  0.2604  0.1762 -0.1454
    1W        W 1756   0.771   1.944   1.718  0.3230  0.2370 -0.4155
    1W        W 1757   1.630   0.056   7.171 -0.3069 -0.0389  0.1374
    1W        W 1758   3.300   3.267   0.679 -0.1678  0.2982 -0.2556
    1W        W 1759   0.206   0.962   1.793  0.1638  0.2640 -0.0895
    1W        W 1760   0.772   1.918   6.144 -0.3358 -0.0670  0.0075
    1W        W 1761   1.038   3.589   0.405 -0.0364  0.0421 -0.1233
    1W        W 1762   1.028   0.404   1.639  0.0338  0.1905 -0.1844
    1W        W 1763   2.499   1.678   0.163  0.2190  0.4117 -0.3661
    1W        W 1764   0.042   0.736   1.038 -0.0485  0.0069  0.0929
    1W        W 1765   0.858   4.387   1.743  0.0197  0.5444 -0.0581
    1W        W 1766   2.457   0.457   6.777 -0.0300 -0.0446  0.1230
    1W        W 1767   1.857   1.134   6.180  0.0429 -0.2718 -0.2926
    1W        W 1768   0.430   4.367   6.197 -0.0916  0.4173  0.0164
    1W        W 1769   2.847   1.901   6.640 -0.0271 -0.1258  0.2058
    1W        W 1770   1.218   4.473   5.651  0.1173  0.0430 -0.2197
    1W        W 1771   0.862   1.854   5.612  0.1084 -0.0606  0.2840
    1W        W 1772   4.445   0.019   1.948 -0.1754 -0.3361 -0.0071
    1W        W 1773   4.224   3.657   0.127 -0.1978 -0.2179  0.0868
    1W        W 1774   3.722   0.860   0.461  0.1389 -0.1132 -0.1795
    1ION     NA 1775   0.164   1.203   6.359  0.2971  0.3259 -0.1048
    1ION     NA 1776   4.298   1.675   6.872 -0.2490  0.1667 -0.2050
    1ION     NA 1777   1.168   2.711   6.644  0.4365 -0.4269 -0.1762
    1ION     NA 1778   0.893   0.924   1.243  0.0926 -0.2944  0.2096
    1ION     CL 1779   3.663   0.919   0.012  0.0213 -0.0710 -0.2462
    1ION     CL 1780   3.241   3.720   7.135 -0.0854 -0.3027  0.0999
    1ION     CL 1781   2.559   1.257   0.162 -0.2280  0.2233  0.2460
    1ION     CL 1782   2.984   3.479   0.481 -0.0355  0.3245 -0.2081
    1ION     NA 1783   0.193   3.317   6.130 -0.3470 -0.0603 -0.0087
    1ION     NA 1784   1.873   3.073   0.741  0.3415  0.0211  0.0705
    1ION     NA 1785   3.427   3.300   0.290 -0.0921 -0.0235  0.1526
    1ION     NA 1786   0.100   3.325   1.056  0.1236 -0.3468  0.0843
    1ION     NA 1787   0.494   1.344   0.040 -0.6981  0.2821  0.2542
    1ION     NA 1788   3.906   1.364   0.515  0.2872  0.3338 -0.3804
    1ION     NA 1789   3.318   4.393   0.900  0.1816 -0.3164 -0.3519
    1ION     NA 1790   2.521   0.147   0.120  0.3969  0.2568  0.0091
    1ION     NA 1791   2.853   1.603   6.914  0.0149 -0.0372 -0.2190
    1ION     NA 1792   2.983   3.974   6.601  0.0161  0.4059  0.1931
    1ION     NA 1793   1.800   0.068   1.460  0.3412  0.2301  0.1513
    1ION     NA 1794   3.790   0.423   0.844  0.3595 -0.1087  0.0723
    1ION     NA 1795   0.680   3.184   1.322 -0.5456  0.1334 -0.2585
    1ION     NA 1796   2.504   0.727   1.173  0.5609  0.3090  0.1541
    1ION     NA 1797   1.153   3.866   6.732  0.1276 -0.2001  0.1220
    1ION     NA 1798   0.050   3.745   0.414  1.0480 -0.2479 -0.1649
    1ION     NA 1799   2.557   3.684   1.074  0.0141  0.5783  0.2242
    1ION     NA 1800   3.507   1.332   6.700  0.3431  0.1549  0.0073
    1ION     NA 1801   0.839   3.499   6.476 -0.1776 -0.0758  0.2353
    1ION     NA 1802   2.553   0.043   1.139  0.3793  0.2645 -0.1604
    1ION     NA 1803   4.206   2.675   6.248  0.4889  0.4621  0.0197
    1ION     NA 1804   0.114   3.876   6.600  0.1397 -0.5007 -0.0316
    1ION     NA 1805   1.535   2.097   6.291 -0.3858 -0.0854  0.2983
    1ION     NA 1806   0.825   0.849   7.104  0.1834  0.0295  0.4201
    1ION     NA 1807   3.120   3.153   6.701 -0.0837  0.6761 -0.0942
    1ION     NA 1808   2.089   1.669   7.314  0.0231  0.2568 -0.0505
    1ION     NA 1809   4.318   1.722   0.711  0.1913  0.1107  0.1062
    1ION     NA 1810   1.442   4.478   6.703 -0.5277 -0.3538  0.4070
    1ION     NA 1811   3.135   4.285   0.257 -0.5749  0.2801  0.1222
    1ION     NA 1812   3.949   2.176   7.193 -0.4728 -0.0957  0.1808
    1ION     NA 1813   0.936   3.450   7.289 -0.0309  0.2484 -0.2136
    1ION     NA 1814   3.547   2.715   6.529  0.3775 -0.8544 -0.3457
    1ION     NA 1815   2.708   2.887   0.645 -0.0236 -0.9560 -0.1105
    1ION     NA 1816   2.010   1.566   6.257  0.1208  0.0890 -0.0001
    1ION     NA 1817   1.594   0.825   0.008  0.1580  0.1894  0.0418
    1ION     NA 1818   3.626   2.007   6.369 -0.4260  0.2654  0.2799
    1ION     NA 1819   2.679   3.608   0.239  0.1571 -0.0462 -0.1743
    1ION     NA 1820   2.536   2.828   7.241 -0.0454  0.1338 -0.2863
    1ION     NA 1821   4.172   0.722   0.390  0.3651 -0.1104  0.3727
    1ION     NA 1822   1.388   2.348   7.310  0.2709 -0.1716 -0.3736
    1ION     NA 1823   1.405   0.109   6.025 -0.0098 -0.4733 -0.2635
    1ION     NA 1824   1.723   3.736   1.187  0.3717 -0.1171 -0.1294
    1ION     NA 1825   1.698   3.415   6.709 -0.4140 -0.0261  0.2956
    1ION     NA 1826   3.450   0.823   6.274  0.1801  0.1082 -0.2621
    1ION     NA 1827   3.074   0.199   5.888 -0.0546 -0.1081 -0.5299
    1ION     NA 1828   2.951   2.240   1.340 -0.2131  0.1066  0.1372
    1ION     NA 1829   2.071   3.927   6.468  0.0851  0.3532  0.1402
    1ION     NA 1830   1.756   2.034   5.648 -0.2233 -0.0513 -0.1784
    1ION     NA 1831   3.372   0.255   6.725 -0.1029  0.2029  0.1791
    1ION     NA 1832   0.608   0.105   6.670 -0.2782  0.3392  0.9582
    1ION     NA 1833   4.114   2.614   0.830 -0.1607  0.1712  0.4743
    1ION     NA 1834   2.067   1.080   0.540 -0.2320  0.0203  0.4586
    1ION     NA 1835   0.462   2.578   0.980 -0.2594 -0.1705 -0.0362
    1ION     NA 1836   1.579   3.175   1.454 -0.5155 -0.1496  0.0723
    1ION     NA 1837   2.745   2.264   0.427 -0.2469 -0.1506  0.1936
    1ION     NA 1838   0.581   1.895   6.539 -0.0758 -0.3742 -0.0228
    1ION     NA 1839   3.715   3.561   5.902  0.3321 -0.1802 -0.1970
    1ION     NA 1840   1.417   4.209   0.017 -0.2810 -0.4538 -0.2779
    1ION     NA 1841   3.798   3.689   6.794 -0.1591  0.3298  0.2572
    1ION     NA 1842   4.137   0.124   6.818 -0.5178  0.0669  0.7002
    1ION     NA 1843   1.152   3.876   0.726  0.4004  0.3627  0.0284
    1ION     NA 1844   2.766   1.387   1.345 -0.5466 -0.3507  0.2812
    1ION     NA 1845   0.977   2.016   1.375 -0.2530 -0.4427 -0.2501
    1ION     NA 1846   1.509   1.601   6.908  0.0089  0.0691 -0.1904
    1ION     NA 1847   2.244   2.156   0.999  0.3253 -0.1044 -0.0184
    1ION     NA 1848   3.601   1.869   1.517 -0.2577 -0.2738 -0.1966
    1ION     NA 1849   1.808   0.410   0.449 -0.0153 -0.1436 -0.4799
    1ION     NA 1850   0.652   4.373   0.244  0.0088  0.1581 -0.0860
    1ION     NA 1851   3.464   2.089   0.829 -0.1301 -0.2213  0.1216
    1ION     NA 1852   2.665   1.798   6.277 -0.1957 -0.1676  0.0533
    1ION     NA 1853   3.319   1.406   0.870 -0.0929  0.2664 -0.3142
    1ION     NA 1854   4.110   2.872   0.279 -0.3072 -0.1254  0.0934
   4.49395   4.49395   7.34906
