INSANE! Membrane UpperLeaflet>GIB0:POPC=50.0:50.0 LowerLeaflet>GIB0:POPC=50.0:50.0
 1854
    1GIB0   PO4    1   4.046   0.248   6.124 -0.1813 -0.0459 -0.3072
    1GIB0    A0    2   3.764   0.048   6.051  0.0511  0.1108 -0.1168
    1GIB0    B0    3   3.719  -0.007   6.413  0.2212  0.0523 -0.1041
    1GIB0    C0    4   3.424  -0.058   6.169  0.1664 -0.1329  0.0002
    1GIB0   VS0    5   3.636  -0.006   6.211  0.1462  0.0101 -0.0736
    1GIB0    A1    6   3.889  -0.320   6.357 -0.1788 -0.1794 -0.0332
    1GIB0    B1    7   3.854  -0.514   6.651  0.1047  0.0229  0.1369
    1GIB0    C1    8   3.814  -0.171   6.657  0.3934  0.0609 -0.0022
    1GIB0    D1    9   3.875  -0.097   6.848  0.7411  0.1256 -0.1345
    1GIB0   VS1   10   3.852  -0.335   6.555  0.1064 -0.0318  0.0339
    1GIB0    A2   11   3.722  -0.633   6.988  0.2388  0.0165 -0.0286
    1GIB0    B2   12   3.860  -0.404   7.258  0.2712  0.0860 -0.1039
    1GIB0    C2   13   4.143  -0.426   6.983  0.0354  0.4301 -0.3792
    1GIB0   VS2   14   3.908  -0.487   7.076  0.1818  0.1775 -0.1705
    1GIB0    A3   15   3.989  -0.091   7.294 -0.0067  0.0412 -0.1221
    1GIB0    B3   16   3.799   0.094   7.411  0.0889  0.0672 -0.0078
    1GIB0    C3   17   3.594  -0.045   7.194 -0.0314  0.1758  0.0355
    1GIB0   VS3   18   3.794  -0.014   7.299  0.0169  0.0947 -0.0315
    1GIB0   NOH   19   3.790   0.544   5.851  0.1539 -0.2229 -0.2278
    1GIB0   GLA   20   3.997   0.428   5.658 -0.0507 -0.1787  0.3166
    1GIB0   GLB   21   4.015   0.722   6.009 -0.2741  0.0520 -0.0062
    1GIB0   C1A   22   3.985   0.444   5.229 -0.2289  0.0092  0.2233
    1GIB0   C2A   23   4.078   0.525   4.736 -0.4945 -0.2262  0.1088
    1GIB0   C3A   24   4.089   0.496   4.256 -0.0726 -0.1898 -0.2866
    1GIB0   C1B   25   4.238   0.927   5.665 -0.2170 -0.3174 -0.2073
    1GIB0   C2B   26   4.151   0.914   5.157  0.0227  0.2316  0.0783
    1GIB0   C3B   27   4.165   0.970   4.638  0.0989 -0.0109 -0.2126
    1GIB0   C4B   28   4.143   1.027   4.173  0.0407  0.0833 -0.1366
    1GIB0   C5B   29   4.298   1.054   3.727  0.1068 -0.1650  0.3555
    1GIB0   PO4   30   4.185   0.717   6.405 -0.2116 -0.0140  0.1520
    1GIB0    A0   31   4.487   0.835   6.630 -0.1194 -0.2830  0.0095
    1GIB0    B0   32   4.621   0.549   6.440  0.3344 -0.0783  0.0154
    1GIB0    C0   33   4.859   0.788   6.628 -0.0370  0.3338 -0.0319
    1GIB0   VS0   34   4.656   0.724   6.566  0.0593 -0.0092 -0.0023
    1GIB0    A1   35   4.416   0.444   6.756 -0.0301 -0.1213 -0.1582
    1GIB0    B1   36   4.576   0.157   6.888 -0.0971  0.0123  0.2190
    1GIB0    C1   37   4.657   0.280   6.575  0.0028 -0.3579  0.0972
    1GIB0    D1   38   4.717   0.117   6.450  0.0201 -0.5094  0.3007
    1GIB0   VS1   39   4.550   0.294   6.739 -0.0415 -0.1556  0.0527
    1GIB0    A2   40   4.811   0.064   7.131  0.1507 -0.1776 -0.0654
    1GIB0    B2   41   5.183   0.121   7.079  0.2232 -0.3425  0.2588
    1GIB0    C2   42   5.045  -0.002   6.729  0.4189 -0.0059  0.0613
    1GIB0   VS2   43   5.013   0.061   6.980  0.2643 -0.1753  0.0849
    1GIB0    A3   44   5.492   0.061   7.198 -0.3206  0.1358  0.0262
    1GIB0    B3   45   5.674   0.187   7.009 -0.1323 -0.0574  0.0765
    1GIB0    C3   46   5.570  -0.057   6.813 -0.1253 -0.1118  0.1399
    1GIB0   VS3   47   5.579   0.064   7.006 -0.1928 -0.0111  0.0809
    1GIB0   NOH   48   4.456   0.785   6.067 -0.1240 -0.0144 -0.1726
    1GIB0   GLA   49   4.523   0.524   5.893 -0.2863  0.2655  0.1965
    1GIB0   GLB   50   4.506   1.055   5.985 -0.2304  0.1071 -0.0538
    1GIB0   C1A   51   4.464   0.490   5.419  0.0712  0.0350 -0.1295
    1GIB0   C2A   52   4.550   0.550   4.956  0.2717  0.0142  0.3740
    1GIB0   C3A   53   4.683   0.658   4.514 -0.1185 -0.3621  0.2449
    1GIB0   C1B   54   4.809   0.890   5.660  0.0942 -0.2365  0.1860
    1GIB0   C2B   55   4.966   0.700   5.230 -0.2529 -0.2801  0.1329
    1GIB0   C3B   56   5.090   0.589   4.764 -0.0831 -0.0330 -0.2730
    1GIB0   C4B   57   5.227   0.572   4.372 -0.3205  0.0406 -0.3145
    1GIB0   C5B   58   5.581   0.416   4.059 -0.0282 -0.1084  0.0251
    1GIB0   PO4   59   0.450   1.155   6.433 -0.3652 -0.1660 -0.0857
    1GIB0    A0   60   0.281   1.369   6.660 -0.1255  0.0377  0.0898
    1GIB0    B0   61   0.603   1.275   6.815 -0.0981  0.1763  0.1181
    1GIB0    C0   62   0.377   1.541   6.979 -0.1892  0.1384  0.0546
    1GIB0   VS0   63   0.420   1.395   6.818 -0.1376  0.1174  0.0875
    1GIB0    A1   64   0.352   1.025   6.973 -0.1485 -0.0121  0.0981
    1GIB0    B1   65   0.528   0.823   7.205 -0.0352 -0.0580 -0.0272
    1GIB0    C1   66   0.695   1.022   6.976 -0.1457 -0.1107 -0.1548
    1GIB0    D1   67   0.880   0.928   6.926 -0.2093 -0.1648 -0.2892
    1GIB0   VS1   68   0.525   0.956   7.051 -0.1098 -0.0602 -0.0280
    1GIB0    A2   69   0.758   0.541   7.288  0.2391  0.2472 -0.2670
    1GIB0    B2   70   0.961   0.650   7.590  0.2722  0.1277 -0.2460
    1GIB0    C2   71   0.907   0.978   7.376  0.4053  0.1782 -0.2027
    1GIB0   VS2   72   0.875   0.723   7.418  0.3055  0.1844 -0.2386
    1GIB0    A3   73   1.127   0.626   7.885 -0.1186 -0.0115  0.1560
    1GIB0    B3   74   0.987   0.653   8.138 -0.0163 -0.0455  0.2165
    1GIB0    C3   75   0.765   0.808   7.949 -0.0324  0.0933  0.3486
    1GIB0   VS3   76   0.960   0.696   7.990 -0.0558  0.0121  0.2404
    1GIB0   NOH   77   0.544   1.515   6.201  0.0024  0.0775  0.1272
    1GIB0   GLA   78   0.678   1.324   6.029 -0.3510  0.1428 -0.1533
    1GIB0   GLB   79   0.264   1.498   6.130 -0.0299  0.0522  0.1782
    1GIB0   C1A   80   0.980   1.432   5.703  0.0808 -0.2419  0.0869
    1GIB0   C2A   81   1.160   1.558   5.273 -0.1060  0.0921 -0.1730
    1GIB0   C3A   82   1.398   1.662   4.871  0.0930  0.0079 -0.2009
    1GIB0   C1B   83   0.206   1.352   5.654 -0.2138 -0.1123  0.0337
    1GIB0   C2B   84   0.289   1.190   5.232 -0.0743 -0.0453 -0.2092
    1GIB0   C3B   85   0.380   1.073   4.794  0.2759 -0.1414  0.2379
    1GIB0   C4B   86   0.355   1.269   4.391 -0.1551  0.1328 -0.3438
    1GIB0   C5B   87   0.376   1.413   3.955  0.1295 -0.1812 -0.0622
    1GIB0   PO4   88   3.637   0.721   6.723 -0.2355  0.0621 -0.1544
    1GIB0    A0   89   3.358   0.748   6.520  0.1242  0.0445 -0.0645
    1GIB0    B0   90   3.348   1.081   6.679  0.3516 -0.0271  0.1009
    1GIB0    C0   91   3.051   0.958   6.466  0.0342  0.0622  0.4848
    1GIB0   VS0   92   3.252   0.929   6.555  0.1700  0.0265  0.1737
    1GIB0    A1   93   3.291   0.835   6.984  0.3761  0.3600 -0.2326
    1GIB0    B1   94   3.088   1.035   7.195  0.0305  0.1521 -0.3645
    1GIB0    C1   95   3.326   1.177   6.988  0.1559  0.3817 -0.0667
    1GIB0    D1   96   3.400   1.354   7.080 -0.0510  0.3951  0.0778
    1GIB0   VS1   97   3.235   1.016   7.055  0.1875  0.2980 -0.2213
    1GIB0    A2   98   2.864   1.304   7.248  0.1520  0.1659  0.0021
    1GIB0    B2   99   3.041   1.609   7.390  0.3308  0.1119 -0.1033
    1GIB0    C2  100   3.234   1.297   7.538 -0.0920  0.0436  0.3119
    1GIB0   VS2  101   3.046   1.403   7.392  0.1302  0.1071  0.0702
    1GIB0    A3  102   3.245   1.826   7.488  0.1037 -0.1810 -0.0173
    1GIB0    B3  103   3.451   1.739   7.672  0.1615  0.1039  0.0560
    1GIB0    C3  104   3.191   1.647   7.853  0.2213 -0.0409  0.0694
    1GIB0   VS3  105   3.296   1.737   7.671  0.1622 -0.0393  0.0360
    1GIB0   NOH  106   3.784   0.605   6.323  0.1971  0.0282 -0.0771
    1GIB0   GLA  107   3.530   0.436   6.274 -0.0828 -0.1058 -0.0891
    1GIB0   GLB  108   3.675   0.885   6.278 -0.4367 -0.3967 -0.0284
    1GIB0   C1A  109   3.421   0.301   5.885  0.4547  0.1734 -0.0154
    1GIB0   C2A  110   3.514   0.406   5.380  0.0161 -0.0106  0.2363
    1GIB0   C3A  111   3.599   0.458   4.892  0.0343 -0.0701 -0.4067
    1GIB0   C1B  112   3.270   0.771   6.046 -0.1375 -0.3475 -0.0580
    1GIB0   C2B  113   3.230   0.848   5.546  0.0044 -0.0053 -0.0941
    1GIB0   C3B  114   3.183   0.902   5.071 -0.0450  0.1806  0.1438
    1GIB0   C4B  115   3.278   0.735   4.622  0.0163  0.3320 -0.1715
    1GIB0   C5B  116   3.476   0.427   4.322  0.0605  0.1806 -0.1067
    1GIB0   PO4  117   1.693   0.487   6.790  0.3361 -0.1709 -0.0414
    1GIB0    A0  118   1.932   0.755   6.808  0.2073 -0.1007 -0.2629
    1GIB0    B0  119   2.143   0.455   6.843  0.2725 -0.0147  0.0993
    1GIB0    C0  120   2.292   0.807   6.900  0.1791  0.0833 -0.2539
    1GIB0   VS0  121   2.122   0.672   6.850  0.2196 -0.0107 -0.1392
    1GIB0    A1  122   1.966   0.444   7.146  0.0037 -0.0556  0.2007
    1GIB0    B1  123   2.206   0.298   7.363 -0.0013 -0.1950  0.1130
    1GIB0    C1  124   2.220   0.249   7.021 -0.0607 -0.0701  0.0923
    1GIB0    D1  125   2.303   0.056   6.983 -0.1125 -0.0760  0.0085
    1GIB0   VS1  126   2.131   0.330   7.177 -0.0195 -0.1069  0.1353
    1GIB0    A2  127   2.297   0.207   7.664  0.0037 -0.2279  0.1163
    1GIB0    B2  128   2.677   0.213   7.673 -0.0050  0.2473  0.3025
    1GIB0    C2  129   2.582   0.095   7.307  0.3213  0.0039  0.2944
    1GIB0   VS2  130   2.519   0.172   7.548  0.1067  0.0078  0.2378
    1GIB0    A3  131   2.970   0.043   7.595 -0.0734  0.0686 -0.0656
    1GIB0    B3  132   2.905  -0.197   7.445 -0.1894  0.0980 -0.0623
    1GIB0    C3  133   2.725  -0.264   7.714  0.0953 -0.0009  0.1051
    1GIB0   VS3  134   2.867  -0.139   7.585 -0.0558  0.0552 -0.0076
    1GIB0   NOH  135   1.417   0.709   6.433  0.0926  0.1315  0.2141
    1GIB0   GLA  136   1.216   0.823   6.232 -0.0100  0.1339  0.0781
    1GIB0   GLB  137   1.539   0.504   6.340  0.2095 -0.4869 -0.1285
    1GIB0   C1A  138   1.120   0.944   5.800  0.0909  0.2614  0.0318
    1GIB0   C2A  139   0.959   1.110   5.375  0.4117  0.0979  0.0802
    1GIB0   C3A  140   0.932   1.157   4.855  0.0033  0.2064 -0.3286
    1GIB0   C1B  141   1.503   0.619   5.829  0.1295  0.1210  0.0515
    1GIB0   C2B  142   1.821   0.799   5.460 -0.1133  0.0929 -0.0502
    1GIB0   C3B  143   1.811   0.815   4.995 -0.3420 -0.1572  0.1363
    1GIB0   C4B  144   1.705   0.808   4.516  0.2785 -0.1889  0.0585
    1GIB0   C5B  145   1.686   0.879   4.085  0.1521  0.1768  0.0515
    1GIB0   PO4  146   3.661   2.700   6.583 -0.3450 -0.0307  0.1641
    1GIB0    A0  147   3.352   2.842   6.481 -0.2227 -0.2152 -0.0858
    1GIB0    B0  148   3.317   2.871   6.848 -0.2779 -0.2727 -0.0863
    1GIB0    C0  149   3.143   3.124   6.613  0.1914  0.0829 -0.0582
    1GIB0   VS0  150   3.271   2.946   6.647 -0.1031 -0.1350 -0.0768
    1GIB0    A1  151   3.198   2.524   6.761  0.0931  0.0474  0.0577
    1GIB0    B1  152   2.944   2.450   6.996 -0.1451  0.3428 -0.1039
    1GIB0    C1  153   3.151   2.724   7.036  0.2425  0.0261  0.0996
    1GIB0    D1  154   3.176   2.761   7.245  0.1869 -0.0823  0.1262
    1GIB0   VS1  155   3.098   2.566   6.931  0.0635  0.1388  0.0178
    1GIB0    A2  156   2.760   2.556   7.194  0.0035 -0.0565 -0.1423
    1GIB0    B2  157   2.857   2.487   7.555  0.0321 -0.0372 -0.1462
    1GIB0    C2  158   2.979   2.171   7.351 -0.2553 -0.1847 -0.0927
    1GIB0   VS2  159   2.866   2.404   7.367 -0.0732 -0.0928 -0.1271
    1GIB0    A3  160   2.884   2.342   7.866 -0.3230 -0.2831 -0.1926
    1GIB0    B3  161   2.831   2.508   8.098 -0.1232 -0.3272 -0.1138
    1GIB0    C3  162   2.984   2.737   7.915 -0.1033 -0.3466 -0.1214
    1GIB0   VS3  163   2.900   2.529   7.960 -0.1832 -0.3190 -0.1426
    1GIB0   NOH  164   3.774   2.956   6.233  0.1703  0.2280  0.0470
    1GIB0   GLA  165   3.976   3.101   6.102  0.1486  0.3246 -0.0912
    1GIB0   GLB  166   3.773   2.675   6.147  0.1635  0.0853 -0.1810
    1GIB0   C1A  167   4.027   3.219   5.638  0.0398  0.3200 -0.1251
    1GIB0   C2A  168   3.949   3.382   5.222 -0.3877  0.2039 -0.4647
    1GIB0   C3A  169   3.964   3.467   4.782  0.0287 -0.1008 -0.0830
    1GIB0   C1B  170   3.848   2.722   5.673  0.4243 -0.1920  0.0822
    1GIB0   C2B  171   3.929   2.770   5.171  0.0500 -0.3673  0.1271
    1GIB0   C3B  172   4.221   2.843   4.835  0.1084  0.1222 -0.0235
    1GIB0   C4B  173   4.223   2.684   4.361  0.2313  0.0410 -0.0830
    1GIB0   C5B  174   4.445   2.542   3.918  0.0869 -0.1158  0.0519
    1GIB0   PO4  175   3.269   3.499   6.910 -0.1065  0.1483  0.0546
    1GIB0    A0  176   3.521   3.237   6.916  0.1706  0.2578 -0.0072
    1GIB0    B0  177   3.442   3.133   7.261  0.0206  0.2781 -0.0348
    1GIB0    C0  178   3.692   2.930   7.048  0.0039  0.1825  0.0361
    1GIB0   VS0  179   3.552   3.100   7.075  0.0650  0.2394 -0.0020
    1GIB0    A1  180   3.503   3.489   7.309 -0.0704  0.1104  0.2206
    1GIB0    B1  181   3.812   3.520   7.478  0.0081 -0.1325  0.1230
    1GIB0    C1  182   3.624   3.230   7.500 -0.0073 -0.1451 -0.1597
    1GIB0    D1  183   3.656   3.141   7.690  0.0701 -0.3907 -0.2861
    1GIB0   VS1  184   3.646   3.413   7.429 -0.0232 -0.0558  0.0613
    1GIB0    A2  185   4.053   3.638   7.671 -0.1980  0.1373  0.0290
    1GIB0    B2  186   4.269   3.863   7.454  0.0124 -0.1610 -0.0736
    1GIB0    C2  187   4.284   3.506   7.284 -0.1595 -0.2995  0.1984
    1GIB0   VS2  188   4.202   3.669   7.469 -0.1150 -0.1077  0.0513
    1GIB0    A3  189   4.468   4.095   7.286 -0.0541 -0.2270 -0.0163
    1GIB0    B3  190   4.589   4.233   7.511  0.0504 -0.1858 -0.0977
    1GIB0    C3  191   4.299   4.389   7.516 -0.0097 -0.3030  0.1143
    1GIB0   VS3  192   4.452   4.239   7.438 -0.0045 -0.2386  0.0001
    1GIB0   NOH  193   3.329   3.487   6.504  0.0658  0.0556 -0.4165
    1GIB0   GLA  194   3.395   3.316   6.280  0.0186  0.0932 -0.1202
    1GIB0   GLB  195   3.450   3.751   6.431 -0.0310  0.3236  0.0487
    1GIB0   C1A  196   3.562   3.287   5.868  0.0530  0.2020 -0.0569
    1GIB0   C2A  197   3.588   3.120   5.384 -0.2272  0.2525  0.1388
    1GIB0   C3A  198   3.537   3.298   4.939 -0.3563  0.1305 -0.2291
    1GIB0   C1B  199   3.586   3.795   5.987  0.3351 -0.2130 -0.2055
    1GIB0   C2B  200   3.669   3.629   5.536 -0.1803 -0.2655  0.0148
    1GIB0   C3B  201   3.724   3.798   5.060  0.1474  0.2273 -0.2938
    1GIB0   C4B  202   3.752   3.912   4.594 -0.1887  0.2398  0.2415
    1GIB0   C5B  203   3.492   3.683   4.313 -0.0797  0.3607  0.2737
    1GIB0   PO4  204   0.917   2.155   6.733  0.0510 -0.2055  0.0636
    1GIB0    A0  205   1.022   1.824   6.880  0.0383  0.0048 -0.3412
    1GIB0    B0  206   0.682   1.871   7.015  0.0563  0.1253 -0.3378
    1GIB0    C0  207   0.863   1.532   7.054  0.0000  0.1111 -0.1977
    1GIB0   VS0  208   0.856   1.742   6.983  0.0315  0.0804 -0.2923
    1GIB0    A1  209   0.913   2.107   7.173  0.0057  0.2088  0.0440
    1GIB0    B1  210   1.066   1.867   7.384 -0.1914  0.0996  0.0640
    1GIB0    C1  211   0.732   1.842   7.296 -0.0723  0.0572 -0.3881
    1GIB0    D1  212   0.626   1.749   7.456 -0.2510 -0.0970 -0.5943
    1GIB0   VS1  213   0.904   1.939   7.285 -0.0860  0.1219 -0.0934
    1GIB0    A2  214   1.243   1.811   7.652  0.1386 -0.1907  0.0727
    1GIB0    B2  215   1.353   1.449   7.693  0.3682 -0.1688 -0.3300
    1GIB0    C2  216   1.017   1.435   7.484  0.1998 -0.1680 -0.0611
    1GIB0   VS2  217   1.204   1.565   7.609  0.2355 -0.1758 -0.1061
    1GIB0    A3  218   1.473   1.198   7.576  0.1004  0.2816  0.1810
    1GIB0    B3  219   1.560   1.254   7.305 -0.1202  0.3178  0.1164
    1GIB0    C3  220   1.263   1.131   7.230 -0.1368  0.2221  0.3352
    1GIB0   VS3  221   1.432   1.194   7.371 -0.0522  0.2738  0.2109
    1GIB0   NOH  222   0.991   1.981   6.274  0.0103 -0.0480 -0.0816
    1GIB0   GLA  223   0.855   1.809   6.041 -0.1643  0.0836  0.0231
    1GIB0   GLB  224   1.137   1.762   6.440 -0.1732  0.1577 -0.0450
    1GIB0   C1A  225   0.875   1.952   5.582 -0.0010 -0.0070  0.3092
    1GIB0   C2A  226   1.043   2.088   5.068  0.0302 -0.0712 -0.0032
    1GIB0   C3A  227   1.162   2.091   4.617  0.1543 -0.0594 -0.0636
    1GIB0   C1B  228   1.323   1.447   6.098  0.3766 -0.0809 -0.0784
    1GIB0   C2B  229   1.529   1.445   5.682  0.2331 -0.1535  0.5149
    1GIB0   C3B  230   1.508   1.194   5.289 -0.2378 -0.0381  0.1902
    1GIB0   C4B  231   1.577   1.219   4.794  0.0848  0.0256 -0.0431
    1GIB0   C5B  232   1.577   1.271   4.327  0.0897 -0.2757  0.0769
    1GIB0   PO4  233   1.392   3.757   6.773 -0.0992 -0.0425 -0.4840
    1GIB0    A0  234   1.728   3.895   6.751 -0.0029 -0.0110 -0.2266
    1GIB0    B0  235   1.752   3.712   7.071  0.0102 -0.0603 -0.2557
    1GIB0    C0  236   2.058   3.901   6.931 -0.0176  0.0262 -0.2006
    1GIB0   VS0  237   1.846   3.836   6.918 -0.0034 -0.0150 -0.2276
    1GIB0    A1  238   1.503   4.020   7.113  0.1254  0.2069 -0.0370
    1GIB0    B1  239   1.632   4.241   7.358  0.0450  0.0611  0.1381
    1GIB0    C1  240   1.792   3.944   7.283  0.1129  0.1431 -0.0441
    1GIB0    D1  241   1.890   3.873   7.458  0.0987  0.0395 -0.0780
    1GIB0   VS1  242   1.642   4.068   7.252  0.0945  0.1370  0.0190
    1GIB0    A2  243   1.890   4.352   7.561 -0.0574  0.0120 -0.0196
    1GIB0    B2  244   1.992   4.126   7.850  0.2369 -0.0286 -0.1536
    1GIB0    C2  245   1.597   4.143   7.863  0.2455 -0.0797  0.2136
    1GIB0   VS2  246   1.826   4.207   7.758  0.1417 -0.0321  0.0134
    1GIB0    A3  247   1.950   3.931   8.106 -0.1293  0.1918 -0.1174
    1GIB0    B3  248   2.173   3.856   8.275 -0.2003  0.1476 -0.0424
    1GIB0    C3  249   2.301   3.756   7.987 -0.1007  0.1742 -0.0074
    1GIB0   VS3  250   2.141   3.848   8.123 -0.1434  0.1712 -0.0558
    1GIB0   NOH  251   1.477   3.480   6.352 -0.3040  0.0267  0.0366
    1GIB0   GLA  252   1.354   3.602   6.124 -0.2436 -0.2600  0.1023
    1GIB0   GLB  253   1.759   3.563   6.276 -0.0176 -0.2474  0.2275
    1GIB0   C1A  254   1.312   3.817   5.709  0.3524  0.1108 -0.0880
    1GIB0   C2A  255   1.212   3.905   5.286  0.0620  0.1936  0.1426
    1GIB0   C3A  256   0.968   3.956   4.837  0.1100 -0.0522  0.1281
    1GIB0   C1B  257   1.813   3.673   5.777 -0.0637  0.2253 -0.2485
    1GIB0   C2B  258   1.736   3.665   5.328 -0.3665 -0.0434  0.0367
    1GIB0   C3B  259   1.859   3.750   4.825  0.0067  0.0630  0.2688
    1GIB0   C4B  260   1.941   3.748   4.349 -0.0296 -0.2172  0.4217
    1GIB0   C5B  261   2.077   3.736   3.830  0.0937  0.0169  0.2909
    1GIB0   PO4  262   2.552   1.496   6.680  0.3434 -0.0981  0.1213
    1GIB0    A0  263   2.250   1.304   6.743 -0.1907 -0.0569 -0.0349
    1GIB0    B0  264   2.308   1.340   7.105  0.3298 -0.0850 -0.1117
    1GIB0    C0  265   2.007   1.137   6.974 -0.0304  0.1726  0.3032
    1GIB0   VS0  266   2.188   1.260   6.941  0.0362  0.0102  0.0522
    1GIB0    A1  267   2.564   1.114   6.998  0.0216 -0.1078 -0.0450
    1GIB0    B1  268   2.559   0.842   7.224  0.0294 -0.0061  0.0781
    1GIB0    C1  269   2.414   1.146   7.305 -0.2314 -0.0621 -0.1727
    1GIB0    D1  270   2.427   1.175   7.516 -0.4094  0.0459 -0.1750
    1GIB0   VS1  271   2.512   1.034   7.176 -0.0601 -0.0587 -0.0465
    1GIB0    A2  272   2.541   0.567   7.477  0.1496 -0.1363  0.1184
    1GIB0    B2  273   2.297   0.643   7.759  0.0509  0.0492 -0.0157
    1GIB0    C2  274   2.597   0.896   7.809  0.0291  0.0881 -0.0820
    1GIB0   VS2  275   2.478   0.702   7.682  0.0766  0.0003  0.0069
    1GIB0    A3  276   2.260   0.806   8.074 -0.0913  0.0173  0.2032
    1GIB0    B3  277   2.169   0.691   8.324 -0.1601 -0.0964  0.1261
    1GIB0    C3  278   1.879   0.687   8.166 -0.0217 -0.4770 -0.1267
    1GIB0   VS3  279   2.103   0.728   8.188 -0.0911 -0.1853  0.0675
    1GIB0   NOH  280   2.266   1.668   6.377 -0.3227  0.1853  0.0087
    1GIB0   GLA  281   2.452   1.629   6.156  0.2885  0.3429 -0.1851
    1GIB0   GLB  282   2.104   1.471   6.387 -0.0567 -0.0478 -0.3489
    1GIB0   C1A  283   2.343   1.642   5.702  0.0977 -0.2143  0.1203
    1GIB0   C2A  284   2.427   1.564   5.208  0.2921 -0.0381  0.2515
    1GIB0   C3A  285   2.385   1.518   4.760  0.0510  0.0050 -0.5089
    1GIB0   C1B  286   1.992   1.362   5.921 -0.0644 -0.0687 -0.1287
    1GIB0   C2B  287   2.020   1.291   5.459 -0.1714  0.0812 -0.2734
    1GIB0   C3B  288   2.022   1.321   5.028 -0.0554  0.1084  0.1566
    1GIB0   C4B  289   2.034   1.304   4.526 -0.1849  0.2776 -0.2071
    1GIB0   C5B  290   2.018   1.334   4.074  0.1624  0.0591 -0.2424
    1GIB0   PO4  291   4.231   3.552   6.631  0.2645 -0.1134 -0.1274
    1GIB0    A0  292   4.459   3.495   6.875 -0.1256 -0.0626  0.2540
    1GIB0    B0  293   4.339   3.146   6.857  0.1967 -0.1639  0.0101
    1GIB0    C0  294   4.674   3.229   7.029  0.0772  0.0395  0.1478
    1GIB0   VS0  295   4.491   3.290   6.920  0.0495 -0.0623  0.1373
    1GIB0    A1  296   4.002   3.325   6.994  0.3233  0.1783  0.0185
    1GIB0    B1  297   3.934   3.144   7.291 -0.0535  0.0740 -0.1289
    1GIB0    C1  298   4.115   3.003   7.031 -0.3240 -0.0846 -0.2329
    1GIB0    D1  299   4.078   2.793   7.028 -0.7469 -0.0139 -0.4023
    1GIB0   VS1  300   4.017   3.157   7.105 -0.0181  0.0559 -0.1144
    1GIB0    A2  301   4.018   2.894   7.512  0.1100  0.0588  0.1952
    1GIB0    B2  302   3.884   2.551   7.419  0.0758  0.1902 -0.2530
    1GIB0    C2  303   3.564   2.779   7.468  0.1057  0.2256 -0.2218
    1GIB0   VS2  304   3.822   2.741   7.466  0.0972  0.1582 -0.0932
    1GIB0    A3  305   3.720   2.287   7.307 -0.1637  0.0988 -0.1376
    1GIB0    B3  306   3.495   2.204   7.469  0.0421  0.1896  0.2002
    1GIB0    C3  307   3.733   2.128   7.684  0.3683 -0.3388 -0.3332
    1GIB0   VS3  308   3.649   2.206   7.487  0.0822 -0.0168 -0.0903
    1GIB0   NOH  309   4.566   3.486   6.300 -0.3100  0.0391 -0.0307
    1GIB0   GLA  310   4.378   3.450   6.050 -0.1126  0.0656 -0.1095
    1GIB0   GLB  311   4.816   3.451   6.177  0.3522 -0.1197 -0.1056
    1GIB0   C1A  312   4.232   3.687   5.736  0.0225 -0.1272  0.2077
    1GIB0   C2A  313   4.151   3.820   5.278 -0.0243  0.2057 -0.3120
    1GIB0   C3A  314   4.208   3.902   4.894 -0.0363 -0.1481 -0.2428
    1GIB0   C1B  315   4.716   3.419   5.695  0.1230  0.0341  0.0253
    1GIB0   C2B  316   4.511   3.426   5.228 -0.0771 -0.3678 -0.4584
    1GIB0   C3B  317   4.460   3.443   4.748 -0.0816 -0.3601 -0.1194
    1GIB0   C4B  318   4.211   3.445   4.347  0.0930 -0.1936 -0.1776
    1GIB0   C5B  319   3.965   3.393   3.921  0.0548  0.3818  0.0060
    1GIB0   PO4  320   3.115   0.100   6.468 -0.2911 -0.0559  0.1305
    1GIB0    A0  321   3.303  -0.163   6.579 -0.1091 -0.3844  0.0488
    1GIB0    B0  322   3.299   0.011   6.905 -0.2116 -0.1903 -0.0551
    1GIB0    C0  323   3.485  -0.325   6.864 -0.0233 -0.1119  0.1505
    1GIB0   VS0  324   3.362  -0.159   6.783 -0.1147 -0.2289  0.0481
    1GIB0    A1  325   3.523   0.222   6.712  0.1805 -0.0305 -0.2174
    1GIB0    B1  326   3.772   0.290   6.954 -0.0842 -0.0370  0.0598
    1GIB0    C1  327   3.439   0.255   7.043 -0.2160  0.1743 -0.3341
    1GIB0    D1  328   3.400   0.378   7.213 -0.3655  0.2775 -0.4426
    1GIB0   VS1  329   3.578   0.256   6.903 -0.0399  0.0356 -0.1639
    1GIB0    A2  330   4.063   0.301   7.117 -0.1127  0.0534 -0.3882
    1GIB0    B2  331   4.070   0.562   7.394  0.2777 -0.1610 -0.1925
    1GIB0    C2  332   3.754   0.651   7.173  0.0910  0.1463  0.1929
    1GIB0   VS2  333   3.963   0.505   7.228  0.0853  0.0129 -0.1293
    1GIB0    A3  334   3.909   0.783   7.576 -0.1395  0.2051 -0.1788
    1GIB0    B3  335   3.759   0.715   7.815 -0.0413 -0.0862 -0.1980
    1GIB0    C3  336   3.578   0.541   7.601  0.2807 -0.3868 -0.2312
    1GIB0   VS3  337   3.749   0.680   7.664  0.0333 -0.0893 -0.2027
    1GIB0   NOH  338   2.988  -0.240   6.200  0.0204 -0.0759  0.0470
    1GIB0   GLA  339   3.102  -0.485   6.097  0.0768 -0.1596 -0.5299
    1GIB0   GLB  340   2.967  -0.032   5.984 -0.0234 -0.1355 -0.1241
    1GIB0   C1A  341   3.183  -0.645   5.721  0.0733 -0.1004  0.0011
    1GIB0   C2A  342   3.253  -0.699   5.272  0.0362 -0.0903 -0.0092
    1GIB0   C3A  343   3.300  -0.577   4.779 -0.0727 -0.0156 -0.2131
    1GIB0   C1B  344   3.331  -0.141   5.636  0.0713 -0.1416  0.3818
    1GIB0   C2B  345   3.408  -0.058   5.203 -0.0929  0.0013 -0.1162
    1GIB0   C3B  346   3.430  -0.083   4.746 -0.0478 -0.0334  0.0211
    1GIB0   C4B  347   3.414  -0.119   4.288 -0.0670  0.0532  0.2790
    1GIB0   C5B  348   3.449  -0.014   3.799  0.0323 -0.1373  0.0442
    1GIB0   PO4  349   1.758   1.857   6.417 -0.3373  0.3747 -0.2385
    1GIB0    A0  350   1.627   1.577   6.437  0.0885 -0.0989  0.0271
    1GIB0    B0  351   1.515   1.726   6.755 -0.0570 -0.1581  0.0035
    1GIB0    C0  352   1.403   1.370   6.655 -0.0671 -0.1132 -0.1455
    1GIB0   VS0  353   1.515   1.557   6.616 -0.0119 -0.1234 -0.0382
    1GIB0    A1  354   1.869   1.557   6.784 -0.1842  0.1248  0.1139
    1GIB0    B1  355   1.911   1.500   7.132  0.2356 -0.1154  0.0269
    1GIB0    C1  356   1.705   1.752   7.014 -0.2160 -0.2834  0.4441
    1GIB0    D1  357   1.705   1.912   7.155 -0.2884 -0.3999  0.5788
    1GIB0   VS1  358   1.828   1.603   6.977 -0.0549 -0.0913  0.1950
    1GIB0    A2  359   1.974   1.285   7.398 -0.0496 -0.0972 -0.2763
    1GIB0    B2  360   2.116   1.459   7.704  0.0863 -0.3899 -0.1713
    1GIB0    C2  361   2.217   1.687   7.397  0.0240 -0.1401 -0.0075
    1GIB0   VS2  362   2.102   1.477   7.500  0.0202 -0.2091 -0.1517
    1GIB0    A3  363   2.127   1.719   7.953 -0.2919  0.3119 -0.1178
    1GIB0    B3  364   2.271   1.913   7.792 -0.2113  0.2850 -0.0782
    1GIB0    C3  365   2.471   1.656   7.739 -0.1945  0.2712  0.0501
    1GIB0   VS3  366   2.290   1.762   7.828 -0.2326  0.2894 -0.0486
    1GIB0   NOH  367   1.447   1.899   6.087 -0.0824  0.2213 -0.1112
    1GIB0   GLA  368   1.293   1.962   5.871 -0.1122  0.0978 -0.2294
    1GIB0   GLB  369   1.691   1.731   5.989  0.2941  0.1852 -0.1037
    1GIB0   C1A  370   1.406   1.977   5.393 -0.2558 -0.3463  0.0575
    1GIB0   C2A  371   1.581   2.149   4.927  0.1513  0.2112 -0.1622
    1GIB0   C3A  372   1.585   2.310   4.431  0.3048  0.2889  0.0807
    1GIB0   C1B  373   1.874   1.874   5.574  0.1665  0.1897 -0.2428
    1GIB0   C2B  374   1.852   1.765   5.110  0.1696 -0.0017 -0.0414
    1GIB0   C3B  375   1.860   1.745   4.662 -0.2178 -0.0019 -0.0057
    1GIB0   C4B  376   1.688   1.785   4.168 -0.2374 -0.0413  0.1924
    1GIB0   C5B  377   1.537   2.020   3.772 -0.2689  0.0241  0.2250
    1GIB0   PO4  378   4.195   1.222   6.374  0.1367 -0.0337  0.1458
    1GIB0    A0  379   3.954   1.055   6.581 -0.0984  0.2161  0.0209
    1GIB0    B0  380   3.963   1.398   6.716  0.0818  0.1516  0.1747
    1GIB0    C0  381   3.741   1.130   6.881  0.1748  0.1158  0.2422
    1GIB0   VS0  382   3.886   1.194   6.726  0.0527  0.1612  0.1459
    1GIB0    A1  383   4.218   1.171   6.872 -0.0062  0.0438  0.0835
    1GIB0    B1  384   4.300   1.344   7.170  0.1265 -0.0601  0.1080
    1GIB0    C1  385   4.188   1.513   6.889  0.1538  0.0540  0.1652
    1GIB0    D1  386   4.277   1.706   6.885  0.2422  0.0143  0.1929
    1GIB0   VS1  387   4.235   1.342   6.977  0.0914  0.0126  0.1189
    1GIB0    A2  388   4.240   1.628   7.353 -0.0673  0.4021  0.3012
    1GIB0    B2  389   4.490   1.641   7.639  0.4657  0.0036 -0.1363
    1GIB0    C2  390   4.435   1.256   7.564  0.0589  0.0988 -0.3389
    1GIB0   VS2  391   4.389   1.508   7.519  0.1525  0.1681 -0.0580
    1GIB0    A3  392   4.684   1.532   7.890 -0.0121  0.0734 -0.0730
    1GIB0    B3  393   4.644   1.252   7.955 -0.2577  0.0812 -0.1814
    1GIB0    C3  394   4.331   1.349   7.994 -0.1322  0.3899  0.0831
    1GIB0   VS3  395   4.553   1.377   7.946 -0.1340  0.1815 -0.0571
    1GIB0   NOH  396   3.873   1.124   6.004  0.0755  0.0315 -0.0245
    1GIB0   GLA  397   3.702   1.044   5.743  0.0128  0.1502 -0.2460
    1GIB0   GLB  398   4.112   1.243   5.900 -0.0987  0.3961 -0.0119
    1GIB0   C1A  399   3.721   0.863   5.354 -0.0533 -0.0260 -0.2866
    1GIB0   C2A  400   3.642   0.944   4.872 -0.2295 -0.1940  0.2212
    1GIB0   C3A  401   3.687   0.851   4.356  0.1040  0.1508 -0.0490
    1GIB0   C1B  402   4.015   1.362   5.405 -0.2116 -0.0821  0.0545
    1GIB0   C2B  403   4.182   1.484   4.944  0.1377 -0.0527 -0.0254
    1GIB0   C3B  404   4.623   1.619   4.761 -0.1394 -0.1318  0.0072
    1GIB0   C4B  405   4.897   1.741   4.321  0.4782  0.1277 -0.1416
    1GIB0   C5B  406   5.074   1.845   3.933 -0.1734 -0.0011  0.1641
    1GIB0   PO4  407   1.575   2.747   6.526  0.1114 -0.2070 -0.0933
    1GIB0    A0  408   1.346   2.963   6.513 -0.0971 -0.1840  0.1677
    1GIB0    B0  409   1.578   3.121   6.752 -0.0238  0.1673 -0.1311
    1GIB0    C0  410   1.248   3.296   6.654  0.0764  0.1562 -0.4944
    1GIB0   VS0  411   1.391   3.127   6.640 -0.0148  0.0465 -0.1526
    1GIB0    A1  412   1.501   2.850   6.954  0.0890 -0.0885  0.1037
    1GIB0    B1  413   1.546   2.935   7.295 -0.2382  0.1730  0.0845
    1GIB0    C1  414   1.657   3.143   7.041 -0.0344 -0.0002  0.0307
    1GIB0    D1  415   1.831   3.247   7.109 -0.1112  0.0750  0.1140
    1GIB0   VS1  416   1.568   2.976   7.097 -0.0612  0.0281  0.0730
    1GIB0    A2  417   1.474   2.943   7.634  0.1742 -0.2581 -0.0920
    1GIB0    B2  418   1.626   3.269   7.757 -0.0146 -0.1954 -0.0227
    1GIB0    C2  419   1.890   3.118   7.504 -0.0474  0.1482 -0.2645
    1GIB0   VS2  420   1.663   3.110   7.632  0.0374 -0.1018 -0.1264
    1GIB0    A3  421   1.872   3.508   7.834  0.0411 -0.2518  0.0420
    1GIB0    B3  422   2.105   3.530   7.662  0.1563  0.1231  0.2400
    1GIB0    C3  423   2.247   3.359   7.906 -0.0384 -0.5150 -0.0816
    1GIB0   VS3  424   2.075   3.465   7.800  0.0530 -0.2146  0.0668
    1GIB0   NOH  425   1.551   2.897   6.101  0.1175 -0.1110 -0.1389
    1GIB0   GLA  426   1.357   3.132   6.103  0.3484 -0.0010  0.2314
    1GIB0   GLB  427   1.669   2.799   5.834 -0.1020  0.0801 -0.2451
    1GIB0   C1A  428   1.247   3.362   5.714 -0.1170  0.2574  0.0021
    1GIB0   C2A  429   1.276   3.413   5.256  0.3742 -0.1863  0.2820
    1GIB0   C3A  430   1.355   3.598   4.794 -0.1000 -0.2530 -0.0065
    1GIB0   C1B  431   1.800   3.152   5.459 -0.2112 -0.0200 -0.0746
    1GIB0   C2B  432   1.718   3.273   5.018 -0.4151  0.0961  0.0082
    1GIB0   C3B  433   1.764   3.292   4.544  0.0729  0.1127  0.0644
    1GIB0   C4B  434   1.866   3.238   4.119  0.2060  0.0387  0.2813
    1GIB0   C5B  435   1.656   3.033   3.733  0.1949 -0.1485  0.1804
    1GIB0   PO4  436   0.600   3.581   6.696  0.0134  0.2532 -0.1476
    1GIB0    A0  437   0.772   3.853   6.822  0.1004 -0.1876 -0.2113
    1GIB0    B0  438   1.010   3.583   6.906  0.2226  0.0418  0.1931
    1GIB0    C0  439   1.087   3.949   7.002 -0.1141  0.1714 -0.0229
    1GIB0   VS0  440   0.956   3.795   6.910  0.0696  0.0085 -0.0137
    1GIB0    A1  441   0.756   3.447   7.133 -0.1268 -0.1323  0.3690
    1GIB0    B1  442   0.928   3.310   7.411  0.1896 -0.4021  0.0446
    1GIB0    C1  443   1.061   3.295   7.092 -0.0257  0.1826 -0.0797
    1GIB0    D1  444   1.178   3.117   7.074  0.1128  0.3038 -0.4275
    1GIB0   VS1  445   0.915   3.351   7.212  0.0124 -0.1173  0.1113
    1GIB0    A2  446   1.070   3.330   7.705 -0.2120  0.4806 -0.1327
    1GIB0    B2  447   1.352   3.583   7.670 -0.0147  0.2676 -0.0968
    1GIB0    C2  448   1.404   3.324   7.375 -0.0595  0.1184  0.0257
    1GIB0   VS2  449   1.275   3.413   7.583 -0.0954  0.2889 -0.0679
    1GIB0    A3  450   1.474   3.843   7.525  0.1206  0.0835 -0.2496
    1GIB0    B3  451   1.223   3.954   7.430 -0.1444 -0.1455  0.1654
    1GIB0    C3  452   1.207   3.666   7.270 -0.0171 -0.0559 -0.0107
    1GIB0   VS3  453   1.301   3.821   7.408 -0.0136 -0.0393 -0.0317
    1GIB0   NOH  454   0.428   3.860   6.357 -0.0141 -0.1180  0.0618
    1GIB0   GLA  455   0.355   3.871   6.054  0.0944 -0.1810 -0.2728
    1GIB0   GLB  456   0.661   4.062   6.276 -0.1756 -0.0139  0.2232
    1GIB0   C1A  457   0.494   3.916   5.623  0.2109 -0.1615  0.0896
    1GIB0   C2A  458   0.474   3.977   5.146  0.1439 -0.0343 -0.1721
    1GIB0   C3A  459   0.375   3.929   4.687 -0.1320  0.1140  0.2090
    1GIB0   C1B  460   0.863   4.115   5.839 -0.1596 -0.1716  0.1801
    1GIB0   C2B  461   0.893   4.244   5.407  0.1940 -0.1478 -0.2125
    1GIB0   C3B  462   1.126   4.496   5.064 -0.0203  0.0583 -0.1146
    1GIB0   C4B  463   1.086   4.433   4.589 -0.2799  0.0053  0.0048
    1GIB0   C5B  464   0.891   4.393   4.106 -0.2815  0.1791 -0.3641
    1GIB0   PO4  465   2.418   0.677   6.476  0.0247 -0.0152 -0.0386
    1GIB0    A0  466   2.721   0.728   6.356 -0.0947 -0.1715 -0.1605
    1GIB0    B0  467   2.788   0.514   6.649 -0.1146  0.1536  0.0846
    1GIB0    C0  468   3.048   0.544   6.365  0.1690  0.3045  0.3556
    1GIB0   VS0  469   2.852   0.596   6.457 -0.0135  0.0955  0.0932
    1GIB0    A1  470   2.843   0.823   6.838 -0.3580  0.1434  0.0567
    1GIB0    B1  471   2.923   0.659   7.142  0.1859  0.0468 -0.1326
    1GIB0    C1  472   2.665   0.548   6.939  0.0475 -0.0993  0.1215
    1GIB0    D1  473   2.514   0.460   7.062  0.2869 -0.3248  0.2588
    1GIB0   VS1  474   2.810   0.677   6.973 -0.0416  0.0303  0.0152
    1GIB0    A2  475   2.930   0.367   7.351 -0.1283  0.2984  0.2401
    1GIB0    B2  476   2.990   0.513   7.697  0.1354  0.3562  0.1711
    1GIB0    C2  477   3.234   0.710   7.455  0.1734  0.1047  0.0032
    1GIB0   VS2  478   3.051   0.530   7.501  0.0602  0.2531  0.1381
    1GIB0    A3  479   3.046   0.721   7.966  0.2592 -0.0304 -0.5032
    1GIB0    B3  480   3.052   0.983   7.842  0.0551  0.1798 -0.0801
    1GIB0    C3  481   3.375   0.916   7.817  0.1129  0.4807 -0.1692
    1GIB0   VS3  482   3.158   0.873   7.875  0.1424  0.2100 -0.2508
    1GIB0   NOH  483   2.444   0.320   6.229  0.3316  0.0220  0.0146
    1GIB0   GLA  484   2.688   0.231   6.280 -0.0599 -0.0656 -0.0866
    1GIB0   GLB  485   2.331   0.517   6.049  0.0704  0.2167  0.2445
    1GIB0   C1A  486   2.921   0.413   5.949  0.0668  0.2489  0.0822
    1GIB0   C2A  487   3.069   0.275   5.456 -0.0524 -0.0406  0.0782
    1GIB0   C3A  488   3.068   0.268   4.992  0.1461 -0.0666  0.0615
    1GIB0   C1B  489   2.486   0.365   5.657 -0.4526 -0.1892 -0.1473
    1GIB0   C2B  490   2.560   0.219   5.195  0.1837 -0.0683  0.1594
    1GIB0   C3B  491   2.652   0.149   4.710  0.3638 -0.0094  0.1147
    1GIB0   C4B  492   3.049   0.288   4.469 -0.0003 -0.0619  0.1530
    1GIB0   C5B  493   3.056   0.321   3.962  0.0893  0.0266 -0.2998
    1GIB0   PO4  494   0.973   2.509   6.410 -0.2579  0.2518  0.0295
    1GIB0    A0  495   0.823   2.853   6.520 -0.4282 -0.1836 -0.0832
    1GIB0    B0  496   1.063   2.833   6.800 -0.2585 -0.1885 -0.2279
    1GIB0    C0  497   0.822   3.133   6.769 -0.2487 -0.1671 -0.1006
    1GIB0   VS0  498   0.903   2.940   6.697 -0.3118 -0.1797 -0.1372
    1GIB0    A1  499   0.788   2.610   6.847  0.0832 -0.0612  0.0697
    1GIB0    B1  500   0.770   2.508   7.186 -0.0791  0.2363  0.1528
    1GIB0    C1  501   1.055   2.659   7.058  0.0340 -0.0035  0.1186
    1GIB0    D1  502   1.225   2.583   7.161 -0.0356  0.0058  0.2414
    1GIB0   VS1  503   0.871   2.592   7.030  0.0127  0.0572  0.1137
    1GIB0    A2  504   0.843   2.539   7.525  0.1343  0.0440  0.1059
    1GIB0    B2  505   1.184   2.591   7.683  0.3189  0.2116 -0.3416
    1GIB0    C2  506   1.214   2.255   7.475  0.0335 -0.0856  0.0895
    1GIB0   VS2  507   1.080   2.462   7.561  0.1622  0.0567 -0.0487
    1GIB0    A3  508   1.433   2.650   7.938 -0.3161 -0.2159 -0.1688
    1GIB0    B3  509   1.679   2.506   7.882 -0.1650  0.0808 -0.2817
    1GIB0    C3  510   1.469   2.257   7.829  0.1476 -0.3589  0.4707
    1GIB0   VS3  511   1.527   2.471   7.883 -0.1112 -0.1647  0.0067
    1GIB0   NOH  512   0.867   2.603   5.988  0.3749 -0.1645  0.1416
    1GIB0   GLA  513   0.988   2.858   6.012  0.0437 -0.1001  0.2100
    1GIB0   GLB  514   1.034   2.331   5.943 -0.1666 -0.0374 -0.1717
    1GIB0   C1A  515   1.255   2.846   5.712 -0.1697 -0.0128 -0.1225
    1GIB0   C2A  516   1.388   2.925   5.285  0.1090 -0.2414 -0.1995
    1GIB0   C3A  517   1.359   3.030   4.714  0.1149  0.2697 -0.1372
    1GIB0   C1B  518   1.104   2.453   5.438 -0.0244 -0.1294 -0.1122
    1GIB0   C2B  519   1.232   2.531   4.960  0.0720  0.0181  0.2355
    1GIB0   C3B  520   1.168   2.595   4.459 -0.1635 -0.1640 -0.0376
    1GIB0   C4B  521   0.946   2.744   4.066 -0.0393  0.0507 -0.4171
    1GIB0   C5B  522   0.592   2.765   3.718 -0.0301 -0.1641  0.1145
    1POPC   NC3  523   0.505   2.945   6.078  0.0153 -0.0059  0.0421
    1POPC   PO4  524   0.337   2.610   6.009 -0.3048 -0.1668 -0.3396
    1POPC   GL1  525   0.314   2.522   5.617 -0.0435 -0.0841  0.0770
    1POPC   GL2  526   0.607   2.580   5.617  0.0633 -0.3512  0.0740
    1POPC   C1A  527   0.411   2.181   5.398 -0.1372 -0.1288  0.1869
    1POPC   D2A  528   0.523   2.080   4.849  0.0263 -0.0429 -0.2038
    1POPC   C3A  529   0.209   1.980   4.472  0.2511  0.1839 -0.2313
    1POPC   C4A  530  -0.125   2.143   4.198 -0.2560 -0.1890 -0.0293
    1POPC   C1B  531   0.692   2.528   5.214 -0.1641  0.1202  0.2977
    1POPC   C2B  532   0.768   2.521   4.825 -0.2817  0.4905 -0.3276
    1POPC   C3B  533   0.707   2.193   4.406 -0.1043  0.3589  0.0822
    1POPC   C4B  534   0.695   2.315   3.916  0.1143  0.0999 -0.2992
    1POPC   NC3  535   0.702   0.785   6.202  0.2142 -0.0461  0.0890
    1POPC   PO4  536   0.744   0.435   6.331 -0.1297 -0.0480  0.0935
    1POPC   GL1  537   0.621   0.318   6.028  0.1554  0.0416 -0.0105
    1POPC   GL2  538   0.476   0.104   6.006 -0.2107 -0.2323  0.3238
    1POPC   C1A  539   0.838   0.500   5.684 -0.1913 -0.0840  0.3319
    1POPC   D2A  540   1.212   0.652   5.364  0.1477  0.1209  0.1383
    1POPC   C3A  541   1.274   0.740   4.871 -0.0129  0.1798  0.0685
    1POPC   C4A  542   1.243   0.931   4.394  0.2700  0.1303  0.1438
    1POPC   C1B  543   0.463   0.160   5.670 -0.1588 -0.0014  0.1214
    1POPC   C2B  544   0.564   0.236   5.271 -0.2008  0.1940  0.0752
    1POPC   C3B  545   0.614   0.123   4.844 -0.1295 -0.3490 -0.0105
    1POPC   C4B  546   0.454   0.071   4.347  0.0025  0.1636  0.1889
    1POPC   NC3  547   4.035   0.288   6.579 -0.0281 -0.1786  0.1660
    1POPC   PO4  548   4.274   0.013   6.527 -0.2313  0.0395  0.1966
    1POPC   GL1  549   4.320  -0.084   6.055  0.4531  0.0945 -0.0285
    1POPC   GL2  550   4.147  -0.269   5.999  0.0654  0.0655 -0.4436
    1POPC   C1A  551   4.321  -0.009   5.624  0.0764  0.3166 -0.0461
    1POPC   D2A  552   4.353   0.127   5.103  0.0501  0.1946 -0.0439
    1POPC   C3A  553   4.312   0.060   4.637 -0.0622  0.3406 -0.1565
    1POPC   C4A  554   4.360  -0.297   4.243 -0.2170  0.2084  0.2449
    1POPC   C1B  555   3.939  -0.275   5.732  0.2873  0.0036  0.1770
    1POPC   C2B  556   3.818   0.014   5.451 -0.1518 -0.3089  0.1737
    1POPC   C3B  557   3.896   0.053   4.948  0.2519  0.2243 -0.2847
    1POPC   C4B  558   3.846   0.089   4.413  0.1092  0.0995 -0.0869
    1POPC   NC3  559   3.707   2.292   6.389  0.0356 -0.1275  0.0290
    1POPC   PO4  560   3.358   2.426   6.245 -0.0520 -0.0640 -0.0049
    1POPC   GL1  561   3.452   2.621   5.878 -0.4033 -0.1500 -0.1135
    1POPC   GL2  562   3.399   2.872   6.053 -0.1085 -0.3988  0.2302
    1POPC   C1A  563   3.420   2.631   5.434  0.1281  0.0123  0.0782
    1POPC   D2A  564   3.446   2.744   4.977  0.0165  0.0349 -0.2677
    1POPC   C3A  565   3.754   2.862   4.654  0.0521 -0.0341 -0.1736
    1POPC   C4A  566   3.855   3.017   4.225  0.0110  0.0282 -0.0891
    1POPC   C1B  567   3.200   2.920   5.725 -0.1196 -0.0668  0.2221
    1POPC   C2B  568   3.049   3.101   5.382 -0.0827 -0.1263  0.0672
    1POPC   C3B  569   3.058   3.237   4.923  0.1881  0.0046  0.1591
    1POPC   C4B  570   3.347   3.226   4.484 -0.0013 -0.1247  0.3418
    1POPC   NC3  571   2.934   2.453   5.984  0.4594  0.0476  0.0638
    1POPC   PO4  572   2.618   2.697   6.009 -0.2583 -0.0940 -0.0573
    1POPC   GL1  573   2.720   2.964   5.625  0.2705  0.1112  0.2166
    1POPC   GL2  574   2.842   2.711   5.541 -0.0683 -0.3239  0.0226
    1POPC   C1A  575   2.518   3.106   5.292 -0.0522 -0.1430  0.1041
    1POPC   D2A  576   2.177   2.884   5.020 -0.0481 -0.2686 -0.2793
    1POPC   C3A  577   2.180   3.011   4.538 -0.3862 -0.3049 -0.3804
    1POPC   C4A  578   2.387   3.305   4.151  0.0613  0.0769 -0.4336
    1POPC   C1B  579   2.967   2.694   5.154  0.5147  0.0912 -0.1662
    1POPC   C2B  580   2.979   2.755   4.762 -0.0714 -0.0725 -0.0205
    1POPC   C3B  581   2.972   2.747   4.292  0.2133  0.4325  0.3633
    1POPC   C4B  582   2.909   3.085   3.985 -0.0890  0.1447  0.2898
    1POPC   NC3  583   3.092   1.607   6.367  0.0654 -0.2274 -0.2103
    1POPC   PO4  584   2.858   1.287   6.247 -0.2941 -0.0855  0.3038
    1POPC   GL1  585   2.674   1.072   5.958 -0.2055  0.0375  0.5076
    1POPC   GL2  586   2.761   0.838   5.889  0.1956 -0.2782  0.0981
    1POPC   C1A  587   2.484   1.160   5.540 -0.0471  0.2003 -0.0346
    1POPC   D2A  588   2.367   1.018   5.146  0.0430  0.0943  0.0713
    1POPC   C3A  589   2.243   0.930   4.717  0.1948  0.0377 -0.0105
    1POPC   C4A  590   2.385   1.013   4.324  0.1849 -0.0342  0.2081
    1POPC   C1B  591   2.677   0.770   5.577 -0.1742  0.0239 -0.1078
    1POPC   C2B  592   2.740   0.691   5.169  0.0841 -0.0553 -0.4193
    1POPC   C3B  593   2.756   0.689   4.681  0.1340 -0.1615  0.0255
    1POPC   C4B  594   2.687   0.565   4.213  0.0905  0.1723  0.2483
    1POPC   NC3  595   0.409   3.121   6.560 -0.2653  0.0900 -0.1171
    1POPC   PO4  596   0.117   2.982   6.339 -0.1366 -0.1034  0.2931
    1POPC   GL1  597   0.172   3.024   5.816 -0.3801  0.2534  0.0858
    1POPC   GL2  598  -0.017   2.868   5.800 -0.3256 -0.1224 -0.3091
    1POPC   C1A  599   0.404   2.983   5.427  0.0664  0.0121  0.3106
    1POPC   D2A  600   0.484   2.962   4.933  0.0775 -0.1575 -0.0680
    1POPC   C3A  601   0.343   3.040   4.525  0.1574  0.0202  0.0886
    1POPC   C4A  602   0.077   3.070   4.058  0.0254 -0.0968 -0.0797
    1POPC   C1B  603  -0.000   2.735   5.479 -0.3382 -0.0492  0.0606
    1POPC   C2B  604   0.165   2.528   5.149  0.1748 -0.0144  0.1025
    1POPC   C3B  605   0.266   2.470   4.724 -0.1861  0.2781 -0.0501
    1POPC   C4B  606   0.524   2.623   4.329  0.3598  0.2661  0.0743
    1POPC   NC3  607   1.360   2.513   6.132 -0.1144  0.0918 -0.1186
    1POPC   PO4  608   1.644   2.332   5.958  0.1221 -0.0750 -0.0684
    1POPC   GL1  609   1.653   2.314   5.566 -0.2680 -0.1338  0.0802
    1POPC   GL2  610   1.586   2.555   5.491  0.0809 -0.1386  0.2679
    1POPC   C1A  611   2.059   2.288   5.339  0.0151  0.2961 -0.0330
    1POPC   D2A  612   2.415   2.092   5.134 -0.0206  0.2303  0.0023
    1POPC   C3A  613   2.083   2.233   4.817  0.0540 -0.1319 -0.1463
    1POPC   C4A  614   2.038   2.407   4.375 -0.2310  0.1864  0.1433
    1POPC   C1B  615   1.815   2.671   5.223 -0.0940 -0.1317  0.0645
    1POPC   C2B  616   1.751   2.703   4.852 -0.3354  0.2972  0.0505
    1POPC   C3B  617   1.705   2.815   4.362  0.0733 -0.0017 -0.1099
    1POPC   C4B  618   1.370   3.068   4.159  0.1859 -0.1600  0.0204
    1POPC   NC3  619   3.832   1.522   6.257  0.0823 -0.1351  0.1749
    1POPC   PO4  620   3.611   1.831   6.204  0.3590  0.0151 -0.2343
    1POPC   GL1  621   3.360   1.844   5.864 -0.5359 -0.1027  0.0122
    1POPC   GL2  622   3.380   2.139   5.902  0.0383  0.2371  0.1925
    1POPC   C1A  623   3.465   1.569   5.552 -0.2751  0.0406  0.2293
    1POPC   D2A  624   3.539   1.343   5.196  0.0362 -0.1410 -0.3802
    1POPC   C3A  625   3.734   1.454   4.730  0.0996  0.0140 -0.2840
    1POPC   C4A  626   4.152   1.426   4.462  0.0409 -0.1009  0.3686
    1POPC   C1B  627   3.561   2.207   5.575 -0.1040 -0.1252  0.0889
    1POPC   C2B  628   3.398   2.255   5.164  0.0301  0.1970  0.2483
    1POPC   C3B  629   3.283   2.309   4.662 -0.3424 -0.0872  0.1937
    1POPC   C4B  630   3.276   2.187   4.218  0.1378 -0.2985 -0.1564
    1POPC   NC3  631   2.450   3.073   6.470 -0.1558 -0.1877 -0.1223
    1POPC   PO4  632   2.164   3.293   6.337  0.0577  0.1304  0.0879
    1POPC   GL1  633   2.127   3.626   6.082  0.1208  0.0628 -0.2813
    1POPC   GL2  634   2.103   3.839   6.081  0.0311  0.2466  0.1111
    1POPC   C1A  635   2.306   3.497   5.669  0.0542 -0.1036 -0.1836
    1POPC   D2A  636   2.183   3.442   5.202 -0.1315  0.1098  0.1991
    1POPC   C3A  637   2.432   3.288   4.851 -0.2463  0.0035 -0.0875
    1POPC   C4A  638   2.652   3.075   4.528 -0.2204  0.0395  0.1118
    1POPC   C1B  639   2.248   3.954   5.750  0.2128  0.1218  0.2344
    1POPC   C2B  640   2.344   3.954   5.398  0.1232 -0.0531  0.5102
    1POPC   C3B  641   2.482   3.958   4.940 -0.1046 -0.1767  0.1113
    1POPC   C4B  642   2.491   3.949   4.500 -0.1686 -0.0999  0.1655
    1POPC   NC3  643   2.083   1.977   6.065 -0.0958  0.0685 -0.0148
    1POPC   PO4  644   2.489   2.100   6.119 -0.0067 -0.1602 -0.1663
    1POPC   GL1  645   2.819   2.019   5.830 -0.0032 -0.1443  0.2081
    1POPC   GL2  646   2.802   1.737   5.902  0.2773  0.3098 -0.0679
    1POPC   C1A  647   3.044   2.231   5.536  0.1231  0.0809  0.0841
    1POPC   D2A  648   2.954   2.238   5.034 -0.0850  0.0619  0.2936
    1POPC   C3A  649   2.835   1.971   4.685  0.0479  0.2614 -0.1659
    1POPC   C4A  650   2.617   1.644   4.352 -0.0146 -0.0754  0.0807
    1POPC   C1B  651   2.849   1.466   5.639 -0.1789 -0.1734  0.1375
    1POPC   C2B  652   2.898   1.261   5.251  0.1869 -0.0741  0.0529
    1POPC   C3B  653   2.731   1.114   4.843 -0.1687 -0.2006  0.3259
    1POPC   C4B  654   2.834   1.128   4.361  0.1518 -0.1856 -0.2027
    1POPC   NC3  655   0.041   1.721   6.444 -0.0185  0.2442 -0.0708
    1POPC   PO4  656  -0.154   1.996   6.240  0.1631 -0.0850  0.1696
    1POPC   GL1  657  -0.047   1.653   5.807 -0.0945  0.2011 -0.4847
    1POPC   GL2  658  -0.306   1.784   5.917 -0.1170 -0.0722  0.1427
    1POPC   C1A  659   0.100   1.727   5.388 -0.1524  0.0195 -0.0719
    1POPC   D2A  660   0.037   2.003   4.996 -0.0063 -0.0115  0.4549
    1POPC   C3A  661  -0.255   1.930   4.678 -0.0778  0.0186 -0.1442
    1POPC   C4A  662  -0.569   1.843   4.310  0.0351  0.1788  0.1369
    1POPC   C1B  663  -0.410   1.818   5.566 -0.2417 -0.1094  0.2371
    1POPC   C2B  664  -0.479   1.810   5.186  0.3149 -0.3282  0.0368
    1POPC   C3B  665  -0.765   1.876   4.741 -0.2009 -0.1677 -0.2188
    1POPC   C4B  666  -1.115   1.665   4.430  0.2494 -0.1534 -0.1035
    1POPC   NC3  667   0.712   1.617   6.561  0.1873  0.0128 -0.3361
    1POPC   PO4  668   0.455   1.911   6.518  0.2163 -0.4733 -0.1866
    1POPC   GL1  669   0.264   1.969   6.127  0.1764  0.3747  0.4285
    1POPC   GL2  670   0.200   2.189   5.971  0.2170  0.1583 -0.1266
    1POPC   C1A  671   0.457   1.825   5.743  0.0673 -0.4527  0.2464
    1POPC   D2A  672   0.599   1.680   5.293  0.0832 -0.2487  0.0029
    1POPC   C3A  673   0.858   1.675   4.875 -0.0292 -0.2718 -0.0038
    1POPC   C4A  674   1.141   1.551   4.493  0.1177 -0.0866  0.0367
    1POPC   C1B  675   0.018   2.161   5.643 -0.2014 -0.0274  0.2333
    1POPC   C2B  676  -0.254   2.262   5.301  0.3413 -0.0965  0.3197
    1POPC   C3B  677  -0.268   2.381   4.834 -0.0154 -0.0271 -0.1881
    1POPC   C4B  678  -0.510   2.382   4.417 -0.2486  0.0341  0.0630
    1POPC   NC3  679   1.735   1.061   6.560  0.2578  0.1370  0.0148
    1POPC   PO4  680   1.899   0.806   6.343 -0.0674 -0.4365  0.2853
    1POPC   GL1  681   1.914   0.734   5.936  0.1436 -0.1319 -0.4433
    1POPC   GL2  682   2.198   0.876   5.887  0.2407  0.1267 -0.1928
    1POPC   C1A  683   1.977   0.354   5.661 -0.3422  0.0271 -0.1452
    1POPC   D2A  684   2.026   0.026   5.280 -0.3068 -0.0302  0.1965
    1POPC   C3A  685   2.082  -0.002   4.892  0.3568  0.1112  0.0358
    1POPC   C4A  686   2.100   0.004   4.419  0.3146 -0.2154  0.1535
    1POPC   C1B  687   2.233   0.793   5.570  0.1863  0.1013  0.1737
    1POPC   C2B  688   2.198   0.568   5.206  0.0366 -0.1916 -0.0683
    1POPC   C3B  689   2.231   0.439   4.749 -0.4142  0.0940  0.1864
    1POPC   C4B  690   2.092   0.596   4.284  0.1054 -0.0109 -0.2154
    1POPC   NC3  691   2.931   3.714   6.533  0.2532 -0.2057  0.1906
    1POPC   PO4  692   2.836   3.359   6.332  0.0400 -0.0533 -0.0660
    1POPC   GL1  693   2.697   3.454   6.000  0.0194  0.0613  0.1535
    1POPC   GL2  694   2.943   3.227   5.890 -0.1659 -0.0303  0.3418
    1POPC   C1A  695   2.718   3.805   5.771  0.0729 -0.0543 -0.1893
    1POPC   D2A  696   2.835   4.094   5.392  0.1450 -0.2461 -0.0413
    1POPC   C3A  697   2.982   4.057   4.945  0.1594  0.2545 -0.1246
    1POPC   C4A  698   2.987   4.037   4.491 -0.1339 -0.2005 -0.1693
    1POPC   C1B  699   2.784   3.433   5.542  0.1604  0.3345 -0.2916
    1POPC   C2B  700   2.782   3.627   5.188  0.0570 -0.0875 -0.2605
    1POPC   C3B  701   2.812   3.628   4.699 -0.0897  0.0035  0.1545
    1POPC   C4B  702   3.037   3.518   4.265 -0.2959  0.1130  0.2006
    1POPC   NC3  703   2.046   2.691   5.654  0.2983 -0.0303  0.2332
    1POPC   PO4  704   2.153   2.447   5.939 -0.3420  0.0025  0.0253
    1POPC   GL1  705   2.580   2.327   5.663  0.2515  0.3236 -0.0320
    1POPC   GL2  706   2.383   2.135   5.618 -0.5906 -0.2071  0.2229
    1POPC   C1A  707   2.489   2.562   5.249  0.3195 -0.0591  0.1128
    1POPC   D2A  708   2.432   2.559   4.691 -0.1035 -0.0532  0.0413
    1POPC   C3A  709   2.617   2.290   4.348 -0.1153 -0.1612  0.0508
    1POPC   C4A  710   2.712   2.029   3.976  0.0403  0.1527 -0.0304
    1POPC   C1B  711   2.655   1.925   5.451 -0.3255 -0.1026  0.1699
    1POPC   C2B  712   2.955   1.764   5.229  0.0454 -0.0105  0.1650
    1POPC   C3B  713   3.190   1.487   4.877 -0.2285 -0.3046 -0.0230
    1POPC   C4B  714   3.365   1.205   4.513  0.2140 -0.2874  0.2088
    1POPC   NC3  715   1.601   0.041   6.504  0.0809 -0.0440 -0.0287
    1POPC   PO4  716   1.691  -0.269   6.324  0.1193 -0.2149  0.0237
    1POPC   GL1  717   1.379  -0.166   6.024  0.0362 -0.3120  0.0639
    1POPC   GL2  718   1.662  -0.215   5.851  0.0816 -0.2722 -0.0135
    1POPC   C1A  719   1.352   0.147   5.665 -0.0378  0.2969 -0.1958
    1POPC   D2A  720   1.581   0.373   5.257 -0.2731  0.1062  0.1660
    1POPC   C3A  721   1.677   0.359   4.790 -0.2321  0.0339  0.1674
    1POPC   C4A  722   1.589   0.202   4.345  0.3557  0.0784  0.2320
    1POPC   C1B  723   1.648  -0.210   5.505  0.0566  0.1491  0.1144
    1POPC   C2B  724   1.570  -0.106   5.079 -0.0518  0.0267  0.0967
    1POPC   C3B  725   1.496  -0.240   4.604  0.0552 -0.3132 -0.2840
    1POPC   C4B  726   1.133  -0.350   4.320 -0.0066  0.0251  0.2369
    1POPC   NC3  727   1.030   3.669   6.461  0.1781 -0.1319  0.1721
    1POPC   PO4  728   0.957   3.273   6.379 -0.1948  0.2438  0.1536
    1POPC   GL1  729   0.827   3.257   5.941  0.2649  0.2718  0.0655
    1POPC   GL2  730   0.872   3.542   5.937 -0.0448 -0.0397 -0.0743
    1POPC   C1A  731   0.857   3.108   5.522  0.2057 -0.0514  0.2693
    1POPC   D2A  732   0.958   2.944   5.024 -0.0912  0.1304  0.0147
    1POPC   C3A  733   0.851   3.076   4.537  0.1079 -0.1016  0.0416
    1POPC   C4A  734   0.581   3.119   4.083  0.0167  0.2279  0.1043
    1POPC   C1B  735   0.882   3.644   5.600  0.2571 -0.2109 -0.0290
    1POPC   C2B  736   0.782   3.560   5.199 -0.4349 -0.0227  0.0250
    1POPC   C3B  737   0.748   3.529   4.731  0.1208 -0.3442 -0.2722
    1POPC   C4B  738   0.853   3.509   4.219 -0.0565 -0.0572  0.1708
    1GIB0   PO4  739   3.874   2.054   1.586 -0.0498  0.0534  0.0345
    1GIB0    A0  740   3.803   1.748   1.408  0.0475  0.0242 -0.1286
    1GIB0    B0  741   4.141   1.787   1.264  0.2835 -0.1038  0.3807
    1GIB0    C0  742   3.944   1.459   1.215  0.0787  0.1031 -0.2249
    1GIB0   VS0  743   3.963   1.665   1.296  0.1366  0.0078  0.0090
    1GIB0    A1  744   3.886   2.034   1.053 -0.0304  0.1571 -0.3833
    1GIB0    B1  745   3.992   2.030   0.715  0.0624 -0.2799 -0.3526
    1GIB0    C1  746   4.216   1.978   0.974 -0.0420 -0.1363 -0.2330
    1GIB0    D1  747   4.407   2.053   0.916  0.0210 -0.3192 -0.2626
    1GIB0   VS1  748   4.031   2.014   0.914 -0.0033 -0.0864 -0.3230
    1GIB0    A2  749   4.163   2.205   0.449 -0.0389  0.2267  0.1304
    1GIB0    B2  750   4.000   2.037   0.150  0.0508  0.3210  0.0281
    1GIB0    C2  751   4.104   1.742   0.393 -0.1440  0.2524  0.0291
    1GIB0   VS2  752   4.089   1.995   0.331 -0.0441  0.2667  0.0625
    1GIB0    A3  753   3.771   1.880  -0.070  0.2787 -0.0647  0.0846
    1GIB0    B3  754   3.611   1.656   0.020  0.2634 -0.0110  0.1927
    1GIB0    C3  755   3.903   1.501   0.014  0.2331 -0.0665  0.1484
    1GIB0   VS3  756   3.762   1.679  -0.012  0.2584 -0.0474  0.1419
    1GIB0   NOH  757   3.870   1.844   1.964 -0.1200 -0.0024 -0.2500
    1GIB0   GLA  758   4.006   1.985   2.194 -0.2243 -0.1784  0.2424
    1GIB0   GLB  759   3.653   1.648   1.955  0.3663 -0.1541 -0.4338
    1GIB0   C1A  760   3.882   2.056   2.608  0.1151 -0.2733  0.0944
    1GIB0   C2A  761   3.800   2.041   3.032  0.1059  0.3981 -0.2869
    1GIB0   C3A  762   3.971   2.034   3.478 -0.1950 -0.0260 -0.1505
    1GIB0   C1B  763   3.730   1.178   2.166 -0.0612 -0.0969 -0.2119
    1GIB0   C2B  764   3.735   0.938   2.577  0.1651  0.3029  0.0475
    1GIB0   C3B  765   3.888   0.865   3.023  0.1132 -0.2026  0.1341
    1GIB0   C4B  766   3.895   0.755   3.469 -0.0584  0.1754 -0.0984
    1GIB0   C5B  767   3.779   0.841   3.887 -0.0131  0.0217 -0.1463
    1GIB0   PO4  768   0.113   2.753   1.431  0.1406 -0.0247 -0.0368
    1GIB0    A0  769  -0.110   2.633   1.146  0.0231 -0.0306  0.0671
    1GIB0    B0  770   0.197   2.453   1.047  0.0423  0.0852 -0.0862
    1GIB0    C0  771  -0.117   2.442   0.823  0.0357  0.2218 -0.0842
    1GIB0   VS0  772  -0.010   2.509   1.005  0.0337  0.0921 -0.0344
    1GIB0    A1  773   0.160   2.817   0.970 -0.2640 -0.1428  0.0072
    1GIB0    B1  774   0.141   2.745   0.624  0.1749 -0.0164 -0.0457
    1GIB0    C1  775   0.347   2.563   0.835  0.0740  0.0490  0.1098
    1GIB0    D1  776   0.518   2.498   0.725  0.2460  0.2187  0.2713
    1GIB0   VS1  777   0.216   2.708   0.810 -0.0050 -0.0367  0.0237
    1GIB0    A2  778   0.170   2.538   0.352 -0.0597 -0.3445 -0.1182
    1GIB0    B2  779  -0.116   2.522   0.102 -0.0237  0.0424 -0.1865
    1GIB0    C2  780  -0.280   2.633   0.446 -0.0440 -0.3061 -0.0819
    1GIB0   VS2  781  -0.075   2.564   0.300 -0.0424 -0.2027 -0.1289
    1GIB0    A3  782  -0.432   2.446   0.021  0.2069 -0.0713  0.0158
    1GIB0    B3  783  -0.596   2.483  -0.215 -0.0444 -0.1732  0.1725
    1GIB0    C3  784  -0.429   2.767  -0.233 -0.1361 -0.1338 -0.0693
    1GIB0   VS3  785  -0.486   2.565  -0.142  0.0088 -0.1261  0.0397
    1GIB0   NOH  786  -0.101   2.509   1.751  0.0139 -0.3723 -0.2608
    1GIB0   GLA  787  -0.015   2.728   1.928  0.0465 -0.2234 -0.2564
    1GIB0   GLB  788  -0.289   2.367   1.915 -0.3550 -0.0320 -0.2661
    1GIB0   C1A  789   0.120   2.951   2.297 -0.3254 -0.1968  0.0401
    1GIB0   C2A  790   0.465   3.219   2.569 -0.3241  0.1030 -0.1054
    1GIB0   C3A  791   0.903   3.306   2.778 -0.0800  0.0900 -0.0769
    1GIB0   C1B  792  -0.233   2.444   2.345 -0.0437 -0.2846 -0.1501
    1GIB0   C2B  793  -0.262   2.529   2.815  0.1255  0.0114 -0.4339
    1GIB0   C3B  794  -0.433   2.786   3.199 -0.0109  0.0044 -0.0311
    1GIB0   C4B  795  -0.590   3.003   3.610  0.0564 -0.1677 -0.0010
    1GIB0   C5B  796  -0.825   3.204   3.972  0.1311 -0.1272 -0.2588
    1GIB0   PO4  797   2.874   3.965   1.329  0.0170  0.4422 -0.0223
    1GIB0    A0  798   3.107   4.123   1.076  0.0348 -0.0476 -0.1171
    1GIB0    B0  799   2.777   4.207   0.933  0.0528 -0.3196 -0.3231
    1GIB0    C0  800   3.093   4.398   0.820 -0.0809  0.1940  0.1456
    1GIB0   VS0  801   2.993   4.243   0.943  0.0022 -0.0577 -0.0982
    1GIB0    A1  802   2.802   3.823   0.870  0.1466  0.0876 -0.2195
    1GIB0    B1  803   2.740   3.811   0.522  0.0230  0.2325 -0.2031
    1GIB0    C1  804   2.606   4.061   0.719 -0.1138  0.0095 -0.0099
    1GIB0    D1  805   2.419   4.122   0.637 -0.1976 -0.1009  0.0965
    1GIB0   VS1  806   2.716   3.898   0.704  0.0186  0.1098 -0.1442
    1GIB0    A2  807   2.670   3.949   0.197  0.0864  0.1082  0.0709
    1GIB0    B2  808   2.772   3.684  -0.055 -0.1573  0.1324 -0.0552
    1GIB0    C2  809   3.070   3.704   0.205 -0.0761 -0.1660 -0.1241
    1GIB0   VS2  810   2.838   3.779   0.115 -0.0490  0.0249 -0.0361
    1GIB0    A3  811   2.928   3.488  -0.226  0.3518 -0.2867  0.2497
    1GIB0    B3  812   2.841   3.250  -0.366  0.0169  0.0145 -0.0651
    1GIB0    C3  813   2.669   3.201  -0.089 -0.3231  0.0608 -0.2640
    1GIB0   VS3  814   2.813   3.313  -0.227  0.0152 -0.0705 -0.0264
    1GIB0   NOH  815   3.064   4.216   1.657  0.0947 -0.0285  0.1104
    1GIB0   GLA  816   3.274   4.151   1.852  0.1761 -0.1673 -0.0447
    1GIB0   GLB  817   3.015   4.477   1.600 -0.0358 -0.1264 -0.1636
    1GIB0   C1A  818   3.304   4.199   2.317  0.1061  0.0111  0.3095
    1GIB0   C2A  819   3.280   4.360   2.793 -0.2663 -0.2219  0.0489
    1GIB0   C3A  820   3.360   4.491   3.294  0.0356 -0.0072  0.0341
    1GIB0   C1B  821   3.086   4.596   2.078  0.0212  0.0936 -0.1203
    1GIB0   C2B  822   2.945   4.719   2.521 -0.1212 -0.1239  0.1464
    1GIB0   C3B  823   2.925   4.711   2.953  0.4687 -0.0179 -0.4252
    1GIB0   C4B  824   2.846   4.785   3.464 -0.1767  0.2113 -0.0836
    1GIB0   C5B  825   2.588   5.070   3.761  0.2267  0.1296 -0.0454
    1GIB0   PO4  826   2.014   2.276   1.343  0.0116 -0.0414 -0.1052
    1GIB0    A0  827   2.282   2.542   1.216  0.2199  0.0688 -0.3676
    1GIB0    B0  828   2.044   2.555   0.935  0.4293  0.0906 -0.5454
    1GIB0    C0  829   2.340   2.801   0.951  0.3509  0.1672 -0.2436
    1GIB0   VS0  830   2.222   2.633   1.034  0.3333  0.1089 -0.3856
    1GIB0    A1  831   2.150   2.198   0.846  0.1289  0.2309  0.1218
    1GIB0    B1  832   2.151   2.213   0.492  0.1420  0.1322  0.1176
    1GIB0    C1  833   1.973   2.442   0.681 -0.1318 -0.0127  0.0377
    1GIB0    D1  834   1.801   2.503   0.571 -0.1922 -0.2364  0.0055
    1GIB0   VS1  835   2.091   2.284   0.673  0.0464  0.1168  0.0924
    1GIB0    A2  836   2.126   2.409   0.208  0.2005 -0.0576 -0.2163
    1GIB0    B2  837   1.995   2.168  -0.055 -0.0900 -0.1878  0.0452
    1GIB0    C2  838   2.280   1.971   0.136 -0.0764 -0.1951  0.0172
    1GIB0   VS2  839   2.134   2.183   0.097  0.0114 -0.1468 -0.0513
    1GIB0    A3  840   1.830   2.018  -0.319  0.2981 -0.1860 -0.0110
    1GIB0    B3  841   1.969   2.016  -0.573 -0.2707 -0.1668 -0.3299
    1GIB0    C3  842   2.022   2.333  -0.497  0.3297 -0.2974 -0.1750
    1GIB0   VS3  843   1.940   2.122  -0.463  0.1191 -0.2167 -0.1719
    1GIB0   NOH  844   2.371   2.168   1.586  0.3228 -0.1840 -0.1700
    1GIB0   GLA  845   2.624   2.139   1.736 -0.0616 -0.0114  0.2894
    1GIB0   GLB  846   2.365   2.470   1.672  0.0443  0.1861 -0.2298
    1GIB0   C1A  847   2.692   2.015   2.143 -0.2952  0.1075  0.0829
    1GIB0   C2A  848   2.798   2.070   2.621 -0.1506  0.0901 -0.1333
    1GIB0   C3A  849   2.886   1.940   3.098 -0.2252  0.0719 -0.0131
    1GIB0   C1B  850   2.441   2.495   2.162 -0.0008  0.2703 -0.0791
    1GIB0   C2B  851   2.277   2.209   2.573 -0.2463  0.3656  0.1767
    1GIB0   C3B  852   2.058   2.109   2.992  0.3234  0.1784  0.3418
    1GIB0   C4B  853   2.008   2.105   3.451 -0.0379  0.3241 -0.2544
    1GIB0   C5B  854   1.953   2.235   3.932  0.0653 -0.2911 -0.0325
    1GIB0   PO4  855   1.207   2.467   1.585  0.3697  0.1442  0.1468
    1GIB0    A0  856   1.278   2.764   1.356 -0.0987  0.2964  0.3191
    1GIB0    B0  857   0.922   2.845   1.410 -0.2237  0.0099 -0.0538
    1GIB0    C0  858   1.116   3.002   1.115 -0.1184 -0.0562 -0.0200
    1GIB0   VS0  859   1.106   2.870   1.293 -0.1469  0.0834  0.0818
    1GIB0    A1  860   0.855   2.523   1.332  0.0891 -0.0330  0.1069
    1GIB0    B1  861   0.876   2.470   0.982  0.1915 -0.1030  0.1235
    1GIB0    C1  862   0.794   2.780   1.113  0.3524 -0.0247  0.0413
    1GIB0    D1  863   0.664   2.879   0.976  0.4745  0.0434 -0.0260
    1GIB0   VS1  864   0.842   2.591   1.142  0.2110 -0.0535  0.0906
    1GIB0    A2  865   0.906   2.288   0.687  0.1563 -0.1776 -0.0737
    1GIB0    B2  866   1.114   2.498   0.448  0.0614 -0.0549 -0.0493
    1GIB0    C2  867   0.930   2.758   0.683 -0.3242 -0.1513 -0.2403
    1GIB0   VS2  868   0.983   2.515   0.606 -0.0355 -0.1279 -0.1211
    1GIB0    A3  869   1.362   2.670   0.257 -0.1682  0.1771 -0.4434
    1GIB0    B3  870   1.533   2.806   0.448 -0.1058 -0.1940 -0.2309
    1GIB0    C3  871   1.261   2.986   0.499 -0.1116 -0.3366  0.2663
    1GIB0   VS3  872   1.385   2.821   0.401 -0.1285 -0.1179 -0.1360
    1GIB0   NOH  873   1.649   2.447   1.604 -0.3462 -0.2563 -0.0863
    1GIB0   GLA  874   1.642   2.227   1.761 -0.1797 -0.1716 -0.2431
    1GIB0   GLB  875   1.537   2.684   1.768 -0.1118 -0.0918 -0.4980
    1GIB0   C1A  876   1.715   2.042   2.142  0.2695  0.0253 -0.1931
    1GIB0   C2A  877   1.668   2.012   2.673  0.0140  0.0377  0.0096
    1GIB0   C3A  878   1.544   1.991   3.143 -0.3085  0.2308 -0.0793
    1GIB0   C1B  879   1.303   2.481   2.170  0.0579  0.0286  0.1796
    1GIB0   C2B  880   1.292   2.486   2.684 -0.0222 -0.0408  0.3182
    1GIB0   C3B  881   1.237   2.424   3.146  0.1859 -0.0889 -0.1240
    1GIB0   C4B  882   1.158   2.285   3.590  0.0682  0.4507 -0.0822
    1GIB0   C5B  883   1.170   2.220   4.086 -0.0211  0.0647  0.1150
    1GIB0   PO4  884   0.767   0.490   1.800 -0.0298  0.2033 -0.1175
    1GIB0    A0  885   1.075   0.475   1.638 -0.1104  0.2447  0.0642
    1GIB0    B0  886   0.882   0.625   1.362 -0.2713 -0.4011 -0.1829
    1GIB0    C0  887   1.264   0.582   1.333 -0.2084  0.0541 -0.0644
    1GIB0   VS0  888   1.074   0.561   1.445 -0.1967 -0.0341 -0.0610
    1GIB0    A1  889   0.729   0.279   1.336 -0.2875  0.5726  0.2176
    1GIB0    B1  890   0.678   0.245   0.987  0.2623  0.0279  0.1812
    1GIB0    C1  891   0.659   0.554   1.142 -0.0444  0.2657 -0.3166
    1GIB0    D1  892   0.519   0.676   1.037  0.0918  0.0800 -0.7236
    1GIB0   VS1  893   0.689   0.360   1.155 -0.0232  0.2887  0.0274
    1GIB0    A2  894   0.684   0.293   0.675 -0.0491  0.1725  0.4187
    1GIB0    B2  895   0.334   0.324   0.532  0.0869  0.1997  0.0879
    1GIB0    C2  896   0.302   0.071   0.835 -0.2155  0.1878  0.0477
    1GIB0   VS2  897   0.440   0.229   0.681 -0.0593  0.1866  0.1848
    1GIB0    A3  898   0.113   0.330   0.305  0.2258  0.0850  0.0738
    1GIB0    B3  899  -0.137   0.391   0.438 -0.0641 -0.2995 -0.2810
    1GIB0    C3  900  -0.056   0.126   0.617  0.1534 -0.1060 -0.0892
    1GIB0   VS3  901  -0.027   0.282   0.453  0.1050 -0.1068 -0.0988
    1GIB0   NOH  902   0.888   0.261   2.232  0.2066  0.0986 -0.0216
    1GIB0   GLA  903   0.964   0.376   2.485  0.1353 -0.1431 -0.0991
    1GIB0   GLB  904   0.629   0.263   2.150  0.2317 -0.1101  0.2075
    1GIB0   C1A  905   1.008   0.409   2.871  0.2036  0.0716 -0.2140
    1GIB0   C2A  906   1.134   0.436   3.356 -0.1360 -0.2909 -0.1784
    1GIB0   C3A  907   1.284   0.100   3.686  0.1439  0.0804  0.0673
    1GIB0   C1B  908   0.378   0.394   2.584  0.2101  0.4145 -0.0017
    1GIB0   C2B  909   0.291   0.469   2.992 -0.1189 -0.2420  0.2176
    1GIB0   C3B  910   0.181   0.568   3.436 -0.2713 -0.0349 -0.3169
    1GIB0   C4B  911  -0.119   0.387   3.704  0.1219  0.5812 -0.0442
    1GIB0   C5B  912  -0.207  -0.019   3.968  0.2009  0.0891  0.1968
    1GIB0   PO4  913   2.382   2.908   1.430  0.3366 -0.1234 -0.0951
    1GIB0    A0  914   2.725   3.073   1.417  0.1684  0.0339  0.0438
    1GIB0    B0  915   2.652   3.054   1.055 -0.1942 -0.3552  0.1336
    1GIB0    C0  916   3.005   3.152   1.179 -0.1550  0.0986 -0.3198
    1GIB0   VS0  917   2.794   3.093   1.217 -0.0603 -0.0742 -0.0475
    1GIB0    A1  918   2.697   2.713   1.217 -0.0725  0.1395  0.0931
    1GIB0    B1  919   2.977   2.597   1.034  0.0131  0.2385  0.1606
    1GIB0    C1  920   2.757   2.827   0.899  0.0103  0.2224  0.1379
    1GIB0    D1  921   2.748   2.799   0.688  0.0868  0.2675  0.1287
    1GIB0   VS1  922   2.811   2.713   1.050 -0.0164  0.2001  0.1306
    1GIB0    A2  923   3.259   2.714   0.886  0.0033  0.0241  0.4715
    1GIB0    B2  924   3.362   2.432   0.654 -0.3713  0.1503  0.1448
    1GIB0    C2  925   3.243   2.256   0.988  0.1382 -0.0340  0.2344
    1GIB0   VS2  926   3.288   2.467   0.843 -0.0766  0.0468  0.2835
    1GIB0    A3  927   3.276   2.194   0.460 -0.1608  0.2706 -0.0975
    1GIB0    B3  928   3.009   2.194   0.347 -0.3026  0.2433  0.2309
    1GIB0    C3  929   2.932   2.326   0.639  0.0325  0.1714  0.3543
    1GIB0   VS3  930   3.073   2.238   0.482 -0.1437  0.2284  0.1626
    1GIB0   NOH  931   2.301   3.206   1.774  0.3644  0.0112 -0.0995
    1GIB0   GLA  932   2.577   3.288   1.889  0.1570  0.1294  0.1113
    1GIB0   GLB  933   2.287   2.895   1.867 -0.2088  0.1168 -0.2717
    1GIB0   C1A  934   2.680   3.239   2.297  0.0289 -0.0707 -0.0775
    1GIB0   C2A  935   2.636   3.118   2.746  0.1189 -0.1285  0.2186
    1GIB0   C3A  936   2.486   3.048   3.225 -0.2900 -0.0378 -0.1341
    1GIB0   C1B  937   2.208   2.888   2.345 -0.0664  0.1633 -0.0152
    1GIB0   C2B  938   2.224   2.752   2.807 -0.3013  0.0461 -0.2872
    1GIB0   C3B  939   2.213   2.526   3.234 -0.0590  0.1809 -0.0905
    1GIB0   C4B  940   2.295   2.567   3.728  0.0212 -0.0602 -0.1993
    1GIB0   C5B  941   2.168   2.839   4.089  0.3645 -0.0260 -0.0219
    1GIB0   PO4  942   3.968   0.957   1.393  0.0205 -0.2133  0.0500
    1GIB0    A0  943   3.731   1.087   1.163 -0.0390 -0.1933  0.1063
    1GIB0    B0  944   3.917   0.864   0.936  0.2813  0.0119  0.1626
    1GIB0    C0  945   3.698   1.150   0.795 -0.0353 -0.2608  0.0945
    1GIB0   VS0  946   3.782   1.034   0.965  0.0690 -0.1474  0.1211
    1GIB0    A1  947   4.125   1.143   1.036 -0.1954 -0.0427 -0.0749
    1GIB0    B1  948   4.334   1.150   0.750  0.0870  0.1328  0.1333
    1GIB0    C1  949   4.183   0.857   0.854  0.2289  0.0039 -0.0195
    1GIB0    D1  950   4.308   0.693   0.803  0.4205  0.1092  0.1053
    1GIB0   VS1  951   4.214   1.050   0.880  0.0402  0.0313  0.0130
    1GIB0    A2  952   4.568   1.097   0.462  0.1557 -0.0106 -0.1331
    1GIB0    B2  953   4.579   1.435   0.289  0.0739  0.2031  0.2746
    1GIB0    C2  954   4.196   1.336   0.303  0.1256 -0.0698 -0.1518
    1GIB0   VS2  955   4.448   1.289   0.351  0.1184  0.0409 -0.0035
    1GIB0    A3  956   4.574   1.748   0.172 -0.2981 -0.2866 -0.0305
    1GIB0    B3  957   4.698   1.923   0.367 -0.0328  0.0431 -0.4860
    1GIB0    C3  958   4.487   1.773   0.572  0.2540  0.3661  0.0568
    1GIB0   VS3  959   4.587   1.815   0.370 -0.0256  0.0409 -0.1532
    1GIB0   NOH  960   3.719   0.864   1.727  0.0540  0.1622 -0.0052
    1GIB0   GLA  961   3.869   0.725   1.932  0.2458  0.2267 -0.0707
    1GIB0   GLB  962   3.512   1.058   1.796  0.2744  0.0991 -0.1645
    1GIB0   C1A  963   4.099   0.683   2.302 -0.1127 -0.0523  0.0505
    1GIB0   C2A  964   4.382   0.812   2.691 -0.2097  0.0684  0.2898
    1GIB0   C3A  965   4.469   1.030   3.143  0.0889  0.1780 -0.0080
    1GIB0   C1B  966   3.372   0.829   2.258 -0.0107  0.0489 -0.1648
    1GIB0   C2B  967   3.214   0.841   2.709  0.1337 -0.1280  0.0551
    1GIB0   C3B  968   3.011   0.971   3.205 -0.1460 -0.0824 -0.1528
    1GIB0   C4B  969   2.918   1.151   3.621 -0.1654  0.0523 -0.0097
    1GIB0   C5B  970   2.913   1.534   3.994  0.0100  0.0782  0.2859
    1GIB0   PO4  971   3.679   3.749   1.387  0.0391 -0.2902  0.1787
    1GIB0    A0  972   3.941   3.523   1.435 -0.0584  0.2472 -0.0608
    1GIB0    B0  973   4.021   3.647   1.097  0.1526  0.1651 -0.0418
    1GIB0    C0  974   4.283   3.450   1.300 -0.0789 -0.0530  0.0471
    1GIB0   VS0  975   4.081   3.540   1.277  0.0051  0.1198 -0.0185
    1GIB0    A1  976   3.746   3.378   1.067 -0.2510  0.2100 -0.1824
    1GIB0    B1  977   3.818   3.198   0.770  0.2159 -0.2214  0.1834
    1GIB0    C1  978   3.968   3.503   0.837  0.1713 -0.1624  0.0166
    1GIB0    D1  979   4.008   3.602   0.652  0.5080 -0.4272 -0.0598
    1GIB0   VS1  980   3.844   3.360   0.891  0.0454 -0.0580  0.0059
    1GIB0    A2  981   3.898   3.087   0.448  0.0283 -0.2108 -0.1751
    1GIB0    B2  982   4.058   3.359   0.236 -0.0072 -0.0013  0.0639
    1GIB0    C2  983   3.690   3.485   0.310 -0.0140 -0.1004  0.2007
    1GIB0   VS2  984   3.882   3.311   0.331  0.0024 -0.1041  0.0298
    1GIB0    A3  985   4.146   3.555  -0.008 -0.0326 -0.0546 -0.0299
    1GIB0    B3  986   3.928   3.746  -0.015 -0.0685 -0.0988 -0.1291
    1GIB0    C3  987   3.764   3.490  -0.143  0.0295 -0.1447 -0.1629
    1GIB0   VS3  988   3.946   3.597  -0.055 -0.0238 -0.0994 -0.1074
    1GIB0   NOH  989   3.660   3.814   1.823  0.1764 -0.1344  0.0980
    1GIB0   GLA  990   3.764   3.891   2.097  0.3202 -0.2308  0.1761
    1GIB0   GLB  991   3.697   3.572   1.775  0.4769  0.0170 -0.0701
    1GIB0   C1A  992   3.856   4.158   2.387 -0.1050  0.0177 -0.2050
    1GIB0   C2A  993   3.766   4.180   2.866 -0.6066  0.1729 -0.1998
    1GIB0   C3A  994   3.520   4.008   3.297  0.1705 -0.2535 -0.0300
    1GIB0   C1B  995   3.715   3.420   2.232  0.2186  0.1280  0.4059
    1GIB0   C2B  996   3.549   3.287   2.662 -0.1368  0.4245 -0.0818
    1GIB0   C3B  997   3.450   3.107   3.105 -0.2613 -0.1289 -0.1776
    1GIB0   C4B  998   3.145   3.098   3.515 -0.3109 -0.1176 -0.0905
    1GIB0   C5B  999   3.055   3.516   3.763  0.0963 -0.1522 -0.2295
    1GIB0   PO4 1000   0.530   1.399   1.533  0.0732  0.0671  0.0925
    1GIB0    A0 1001   0.420   1.074   1.581 -0.0713 -0.3074  0.2354
    1GIB0    B0 1002   0.666   1.008   1.314 -0.3417  0.1036 -0.1215
    1GIB0    C0 1003   0.493   0.716   1.498 -0.1132 -0.1827 -0.3576
    1GIB0   VS0 1004   0.526   0.933   1.464 -0.1754 -0.1288 -0.0812
    1GIB0    A1 1005   0.397   1.210   1.108 -0.0063 -0.0247  0.0225
    1GIB0    B1 1006   0.515   1.054   0.812 -0.1227  0.2409 -0.1660
    1GIB0    C1 1007   0.733   1.149   1.064 -0.0170  0.0648 -0.1896
    1GIB0    D1 1008   0.920   1.202   0.977 -0.0670  0.1676 -0.2366
    1GIB0   VS1 1009   0.548   1.138   0.995 -0.0486  0.0937 -0.1110
    1GIB0    A2 1010   0.757   1.067   0.565 -0.1181  0.3263  0.1266
    1GIB0    B2 1011   0.600   0.855   0.291  0.1765  0.1525  0.0904
    1GIB0    C2 1012   0.472   0.699   0.632  0.1895  0.0741  0.0595
    1GIB0   VS2 1013   0.610   0.873   0.496  0.0826  0.1843  0.0922
    1GIB0    A3 1014   0.415   0.624   0.117 -0.0622 -0.1291 -0.0498
    1GIB0    B3 1015   0.312   0.718  -0.137 -0.0539 -0.0909 -0.0390
    1GIB0    C3 1016   0.159   0.938   0.055 -0.1976 -0.2283  0.0042
    1GIB0   VS3 1017   0.295   0.760   0.012 -0.1046 -0.1494 -0.0281
    1GIB0   NOH 1018   0.501   1.412   2.017 -0.1041  0.0809  0.1038
    1GIB0   GLA 1019   0.562   1.367   2.281  0.1336  0.0207  0.1381
    1GIB0   GLB 1020   0.234   1.308   1.943 -0.2020 -0.2619  0.1563
    1GIB0   C1A 1021   0.452   1.471   2.724 -0.0600  0.1032 -0.0503
    1GIB0   C2A 1022   0.485   1.398   3.145 -0.3044 -0.0764 -0.0656
    1GIB0   C3A 1023   0.695   1.475   3.583  0.2137  0.2535 -0.0699
    1GIB0   C1B 1024   0.046   1.173   2.373  0.2731  0.0039 -0.2403
    1GIB0   C2B 1025  -0.148   1.197   2.772 -0.3037 -0.0243  0.0885
    1GIB0   C3B 1026  -0.275   1.240   3.273  0.0299  0.0986 -0.0819
    1GIB0   C4B 1027  -0.399   1.308   3.733  0.0626  0.1640  0.3046
    1GIB0   C5B 1028  -0.525   1.368   4.215 -0.0198 -0.1447  0.3030
    1GIB0   PO4 1029   1.664   1.848   1.429  0.0213 -0.2800  0.2589
    1GIB0    A0 1030   1.487   2.145   1.367 -0.0154  0.0210 -0.1333
    1GIB0    B0 1031   1.395   1.930   1.081  0.0850  0.1565 -0.2685
    1GIB0    C0 1032   1.290   2.301   1.088 -0.0513  0.1151 -0.0556
    1GIB0   VS0 1033   1.391   2.126   1.179  0.0061  0.0975 -0.1525
    1GIB0    A1 1034   1.750   2.077   1.002  0.0815  0.0749 -0.0884
    1GIB0    B1 1035   1.777   2.046   0.650 -0.1161  0.0671 -0.1032
    1GIB0    C1 1036   1.580   1.830   0.835 -0.3815  0.3567 -0.0429
    1GIB0    D1 1037   1.578   1.640   0.739 -0.7222  0.3676 -0.0620
    1GIB0   VS1 1038   1.703   1.985   0.829 -0.1387  0.1662 -0.0782
    1GIB0    A2 1039   1.765   2.124   0.300  0.0270 -0.1207 -0.1539
    1GIB0    B2 1040   1.418   2.261   0.228  0.0276  0.0292  0.1218
    1GIB0    C2 1041   1.360   1.894   0.366 -0.0200  0.0474  0.1502
    1GIB0   VS2 1042   1.514   2.093   0.298  0.0115 -0.0147  0.0394
    1GIB0    A3 1043   1.135   2.375   0.010  0.1192 -0.2621 -0.0659
    1GIB0    B3 1044   0.894   2.216   0.039  0.1674 -0.3636 -0.2130
    1GIB0    C3 1045   1.105   1.966  -0.001  0.3326 -0.2844  0.1450
    1GIB0   VS3 1046   1.045   2.186   0.016  0.2064 -0.3034 -0.0446
    1GIB0   NOH 1047   1.393   1.842   1.852  0.0946  0.0634  0.1426
    1GIB0   GLA 1048   1.249   1.972   2.070 -0.1674  0.1745 -0.1370
    1GIB0   GLB 1049   1.409   1.571   1.893 -0.1980 -0.0730  0.1861
    1GIB0   C1A 1050   1.190   1.956   2.502  0.0111  0.1091 -0.1732
    1GIB0   C2A 1051   1.122   1.893   2.935 -0.0629 -0.1966 -0.0774
    1GIB0   C3A 1052   1.030   1.827   3.455 -0.0624  0.1757 -0.3549
    1GIB0   C1B 1053   1.509   1.569   2.419  0.1639 -0.1213 -0.0069
    1GIB0   C2B 1054   1.416   1.508   2.873  0.1018 -0.2029 -0.0439
    1GIB0   C3B 1055   1.420   1.544   3.338  0.0692  0.0069  0.2110
    1GIB0   C4B 1056   1.261   1.404   3.779  0.0858  0.0442  0.0686
    1GIB0   C5B 1057   0.908   1.309   4.097  0.2708 -0.0671  0.2008
    1GIB0   PO4 1058   1.794   3.682   1.542  0.1615  0.0410 -0.0714
    1GIB0    A0 1059   2.039   3.449   1.503 -0.1571  0.2726  0.1712
    1GIB0    B0 1060   2.121   3.613   1.183 -0.2584 -0.0455 -0.0208
    1GIB0    C0 1061   2.326   3.311   1.306 -0.1887  0.1059  0.2408
    1GIB0   VS0 1062   2.162   3.457   1.331 -0.2014  0.1110  0.1304
    1GIB0    A1 1063   1.788   3.493   1.094 -0.1384  0.2106 -0.0660
    1GIB0    B1 1064   1.892   3.437   0.760  0.0213  0.1768 -0.0108
    1GIB0    C1 1065   1.984   3.724   0.931  0.0196  0.1494  0.0360
    1GIB0    D1 1066   2.004   3.883   0.791  0.1431  0.1426  0.0455
    1GIB0   VS1 1067   1.888   3.551   0.928 -0.0325  0.1789 -0.0136
    1GIB0    A2 1068   2.156   3.431   0.512  0.0269 -0.3640  0.0635
    1GIB0    B2 1069   2.026   3.359   0.162  0.0531  0.0340 -0.0298
    1GIB0    C2 1070   1.756   3.208   0.409  0.0917 -0.3503 -0.2205
    1GIB0   VS2 1071   1.979   3.333   0.361  0.0572 -0.2268 -0.0623
    1GIB0    A3 1072   1.904   3.095  -0.080 -0.3756  0.1703  0.1523
    1GIB0    B3 1073   1.710   2.912   0.033 -0.2163 -0.0729  0.0370
    1GIB0    C3 1074   1.948   2.866   0.256 -0.2580  0.1640  0.1327
    1GIB0   VS3 1075   1.854   2.958   0.070 -0.2833  0.0871  0.1074
    1GIB0   NOH 1076   1.775   3.439   1.914  0.0180  0.0209 -0.1880
    1GIB0   GLA 1077   1.568   3.593   2.042  0.1096  0.0731 -0.3871
    1GIB0   GLB 1078   1.954   3.314   2.112 -0.0597  0.0401  0.0819
    1GIB0   C1A 1079   1.316   3.421   2.344 -0.1981 -0.0437 -0.0485
    1GIB0   C2A 1080   1.197   2.981   2.627 -0.2030 -0.0591  0.0155
    1GIB0   C3A 1081   1.462   2.874   3.061 -0.0462  0.1324 -0.0693
    1GIB0   C1B 1082   2.205   3.335   2.540  0.2478 -0.3310  0.2223
    1GIB0   C2B 1083   1.978   3.372   2.961  0.0347  0.1935 -0.0392
    1GIB0   C3B 1084   1.693   3.357   3.349 -0.1318 -0.0265 -0.0738
    1GIB0   C4B 1085   1.534   3.535   3.716 -0.0567 -0.0865  0.2678
    1GIB0   C5B 1086   1.479   3.567   4.198  0.0887  0.0425 -0.0425
    1GIB0   PO4 1087   1.514   3.222   1.348  0.3234 -0.2406 -0.1345
    1GIB0    A0 1088   1.466   3.379   1.637 -0.0569 -0.1373 -0.2060
    1GIB0    B0 1089   1.170   3.531   1.478 -0.1815 -0.0759  0.0817
    1GIB0    C0 1090   1.189   3.494   1.862  0.2058 -0.0334  0.0685
    1GIB0   VS0 1091   1.275   3.468   1.659 -0.0109 -0.0822 -0.0186
    1GIB0    A1 1092   1.437   3.730   1.316 -0.1916 -0.0313  0.0128
    1GIB0    B1 1093   1.257   4.020   1.222  0.0523  0.1300  0.0401
    1GIB0    C1 1094   1.100   3.714   1.253 -0.2630  0.3128  0.2865
    1GIB0    D1 1095   0.938   3.705   1.114 -0.3830  0.4344  0.4177
    1GIB0   VS1 1096   1.265   3.821   1.264 -0.1341  0.1372  0.1132
    1GIB0    A2 1097   1.028   4.310   1.182  0.1347 -0.4483  0.3693
    1GIB0    B2 1098   0.748   4.113   1.018  0.0306  0.1928 -0.2473
    1GIB0    C2 1099   1.046   4.110   0.757  0.3097  0.1942  0.0684
    1GIB0   VS2 1100   0.940   4.177   0.986  0.1583 -0.0205  0.0635
    1GIB0    A3 1101   0.466   3.957   0.905 -0.1750 -0.0438 -0.1796
    1GIB0    B3 1102   0.499   3.881   0.627 -0.0758  0.0090 -0.1827
    1GIB0    C3 1103   0.626   4.185   0.604  0.0258 -0.0235 -0.0588
    1GIB0   VS3 1104   0.530   4.008   0.712 -0.0750 -0.0195 -0.1404
    1GIB0   NOH 1105   1.869   2.988   1.536 -0.2153 -0.1795 -0.1324
    1GIB0   GLA 1106   1.781   3.025   1.821 -0.0988  0.1317  0.1498
    1GIB0   GLB 1107   1.985   2.709   1.534  0.1186  0.0213 -0.0510
    1GIB0   C1A 1108   1.628   3.056   2.222 -0.0076  0.1028 -0.1050
    1GIB0   C2A 1109   1.790   3.005   2.695  0.0316 -0.1002 -0.0430
    1GIB0   C3A 1110   1.924   2.930   3.167 -0.1517 -0.1047 -0.0567
    1GIB0   C1B 1111   1.935   2.530   1.983  0.0683 -0.1794 -0.0149
    1GIB0   C2B 1112   1.808   2.568   2.478 -0.1717  0.1444  0.2192
    1GIB0   C3B 1113   1.774   2.487   2.978 -0.1890 -0.2218  0.1046
    1GIB0   C4B 1114   1.646   2.494   3.479  0.3120 -0.5270  0.2183
    1GIB0   C5B 1115   1.498   2.624   3.975  0.0267  0.0314 -0.0638
    1GIB0   PO4 1116   2.582   1.492   1.434 -0.1484  0.3771 -0.1799
    1GIB0    A0 1117   2.618   1.845   1.364 -0.1692  0.0511 -0.0032
    1GIB0    B0 1118   2.439   1.704   1.073  0.1431  0.3498 -0.3448
    1GIB0    C0 1119   2.412   2.080   1.157 -0.2360  0.1999  0.2308
    1GIB0   VS0 1120   2.490   1.876   1.198 -0.0874  0.2003 -0.0391
    1GIB0    A1 1121   2.782   1.657   1.064  0.2328 -0.3601  0.0941
    1GIB0    B1 1122   2.861   1.510   0.752  0.3169 -0.1806  0.0305
    1GIB0    C1 1123   2.534   1.534   0.861  0.2650 -0.0086 -0.1610
    1GIB0    D1 1124   2.423   1.370   0.783  0.1845  0.1379 -0.3596
    1GIB0   VS1 1125   2.726   1.567   0.892  0.2716 -0.1831 -0.0121
    1GIB0    A2 1126   2.908   1.431   0.411 -0.0215  0.0155  0.2328
    1GIB0    B2 1127   2.579   1.245   0.374 -0.0977  0.2001 -0.0386
    1GIB0    C2 1128   2.755   1.087   0.692 -0.3219 -0.0899 -0.0563
    1GIB0   VS2 1129   2.748   1.254   0.492 -0.1471  0.0419  0.0460
    1GIB0    A3 1130   2.247   1.109   0.393 -0.4303  0.4179  0.2996
    1GIB0    B3 1131   2.063   1.132   0.170  0.2422  0.0053 -0.3215
    1GIB0    C3 1132   2.139   1.452   0.195  0.1183  0.0630 -0.6499
    1GIB0   VS3 1133   2.150   1.231   0.253 -0.0233  0.1621 -0.2239
    1GIB0   NOH 1134   2.736   1.698   1.825  0.1991  0.1401 -0.1692
    1GIB0   GLA 1135   2.440   1.700   1.832  0.0432 -0.2025 -0.1900
    1GIB0   GLB 1136   2.855   1.583   2.063 -0.0071  0.3850 -0.0570
    1GIB0   C1A 1137   2.182   1.565   2.145 -0.2498 -0.2122 -0.0699
    1GIB0   C2A 1138   2.092   1.561   2.665  0.2114 -0.0830  0.2416
    1GIB0   C3A 1139   1.931   1.651   3.115  0.1002 -0.0714  0.1435
    1GIB0   C1B 1140   2.615   1.587   2.517  0.1637 -0.2027 -0.0918
    1GIB0   C2B 1141   2.498   1.711   2.957 -0.2068 -0.0473 -0.3085
    1GIB0   C3B 1142   2.390   1.846   3.345 -0.0096 -0.0910  0.0576
    1GIB0   C4B 1143   2.202   1.754   3.820  0.1817  0.5761 -0.2250
    1GIB0   C5B 1144   2.158   1.898   4.261 -0.1173  0.2669 -0.1633
    1GIB0   PO4 1145   3.651   4.223   1.563 -0.0579 -0.1068 -0.0087
    1GIB0    A0 1146   3.925   4.142   1.362  0.0400  0.1995  0.2357
    1GIB0    B0 1147   3.806   4.434   1.170  0.3385  0.1815  0.0200
    1GIB0    C0 1148   4.164   4.298   1.118  0.2137 -0.2014  0.1459
    1GIB0   VS0 1149   3.965   4.291   1.217  0.1974  0.0599  0.1339
    1GIB0    A1 1150   3.568   4.143   1.115 -0.1569  0.1283 -0.1043
    1GIB0    B1 1151   3.530   4.171   0.764 -0.0362 -0.0057 -0.1281
    1GIB0    C1 1152   3.576   4.451   0.962 -0.1587  0.0745 -0.2127
    1GIB0    D1 1153   3.474   4.616   0.873 -0.1572  0.0237 -0.3088
    1GIB0   VS1 1154   3.558   4.255   0.947 -0.1173  0.0657 -0.1484
    1GIB0    A2 1155   3.530   3.963   0.475 -0.1354  0.1772 -0.0647
    1GIB0    B2 1156   3.886   3.977   0.344 -0.1235  0.2504 -0.0248
    1GIB0    C2 1157   3.828   4.322   0.530 -0.1752  0.1896  0.0724
    1GIB0   VS2 1158   3.748   4.087   0.450 -0.1447  0.2057 -0.0057
    1GIB0    A3 1159   4.227   3.942   0.239  0.0698 -0.1855 -0.0287
    1GIB0    B3 1160   4.366   3.765   0.422  0.0037 -0.1237  0.0812
    1GIB0    C3 1161   4.338   4.024   0.625 -0.1590 -0.0904  0.0176
    1GIB0   VS3 1162   4.310   3.910   0.429 -0.0285 -0.1332  0.0234
    1GIB0   NOH 1163   3.917   4.284   1.935  0.2922 -0.1639  0.1563
    1GIB0   GLA 1164   4.205   4.151   2.025  0.2091 -0.4865 -0.0921
    1GIB0   GLB 1165   3.650   4.361   2.000  0.4380  0.6002  0.2969
    1GIB0   C1A 1166   4.325   4.113   2.469  0.2637  0.0143  0.1500
    1GIB0   C2A 1167   4.303   4.239   2.937  0.1751 -0.0226  0.2871
    1GIB0   C3A 1168   4.455   4.373   3.351  0.0797 -0.0685 -0.3092
    1GIB0   C1B 1169   3.632   4.606   2.438  0.1178  0.0105  0.0413
    1GIB0   C2B 1170   3.609   4.719   2.893 -0.1625 -0.3633  0.0549
    1GIB0   C3B 1171   3.447   5.008   3.209 -0.1377 -0.1020  0.0229
    1GIB0   C4B 1172   3.343   5.066   3.665  0.0002 -0.1473 -0.3113
    1GIB0   C5B 1173   3.021   5.093   4.005  0.2274 -0.4677  0.0224
    1GIB0   PO4 1174   2.435   0.530   1.329  0.1519  0.0892 -0.2269
    1GIB0    A0 1175   2.279   0.839   1.289 -0.2089 -0.0354  0.0482
    1GIB0    B0 1176   1.997   0.614   1.362 -0.1608  0.0180  0.4061
    1GIB0    C0 1177   1.937   0.991   1.310 -0.2294 -0.0604 -0.1020
    1GIB0   VS0 1178   2.071   0.815   1.320 -0.1997 -0.0259  0.1174
    1GIB0    A1 1179   2.109   0.537   1.021  0.2295  0.1167 -0.0165
    1GIB0    B1 1180   1.806   0.537   0.838  0.1573  0.1983  0.1027
    1GIB0    C1 1181   1.810   0.479   1.180  0.2673  0.2749  0.1146
    1GIB0    D1 1182   1.650   0.348   1.229  0.2328  0.3515  0.2077
    1GIB0   VS1 1183   1.908   0.518   1.013  0.2180  0.1966  0.0669
    1GIB0    A2 1184   1.514   0.440   0.719 -0.0797 -0.0407 -0.0431
    1GIB0    B2 1185   1.580   0.160   0.470 -0.2686  0.0259 -0.1696
    1GIB0    C2 1186   1.871   0.423   0.414 -0.0300 -0.1942  0.0231
    1GIB0   VS2 1187   1.655   0.341   0.534 -0.1261 -0.0696 -0.0632
    1GIB0    A3 1188   1.567  -0.117   0.266  0.1043 -0.0039  0.0384
    1GIB0    B3 1189   1.317  -0.199   0.144 -0.0295  0.3780  0.0513
    1GIB0    C3 1190   1.295  -0.386   0.414 -0.0532  0.0270 -0.1907
    1GIB0   VS3 1191   1.393  -0.234   0.275  0.0072  0.1337 -0.0336
    1GIB0   NOH 1192   2.705   0.584   1.702  0.1691  0.0165 -0.0421
    1GIB0   GLA 1193   2.745   0.764   1.950  0.0077 -0.0942  0.0389
    1GIB0   GLB 1194   2.496   0.366   1.799  0.0176  0.3119 -0.2681
    1GIB0   C1A 1195   2.765   0.861   2.306  0.0979  0.4265  0.1383
    1GIB0   C2A 1196   2.573   0.736   2.684 -0.0995 -0.2298  0.0052
    1GIB0   C3A 1197   2.549   0.894   3.117 -0.0831 -0.1044 -0.2204
    1GIB0   C1B 1198   2.629   0.144   2.274 -0.1281 -0.0045 -0.1536
    1GIB0   C2B 1199   2.675  -0.007   2.744  0.2037 -0.2474 -0.0001
    1GIB0   C3B 1200   2.843   0.047   3.252 -0.1759  0.0747  0.0480
    1GIB0   C4B 1201   2.659   0.056   3.699 -0.0579 -0.2711 -0.1018
    1GIB0   C5B 1202   2.625   0.074   4.191  0.1604 -0.0640 -0.3093
    1GIB0   PO4 1203   3.897   2.783   1.507  0.1189 -0.1470  0.1292
    1GIB0    A0 1204   3.527   2.857   1.462 -0.2007 -0.1727  0.2158
    1GIB0    B0 1205   3.505   2.564   1.240 -0.4066 -0.0292  0.0446
    1GIB0    C0 1206   3.185   2.748   1.352 -0.2600  0.3173 -0.0998
    1GIB0   VS0 1207   3.406   2.723   1.351 -0.2891  0.0385  0.0536
    1GIB0    A1 1208   3.721   2.882   1.069 -0.2532 -0.0120  0.1448
    1GIB0    B1 1209   3.664   2.803   0.728 -0.1355 -0.2075  0.1694
    1GIB0    C1 1210   3.657   2.558   0.972  0.0532 -0.1122  0.2717
    1GIB0    D1 1211   3.723   2.374   0.887  0.2321 -0.0893  0.3583
    1GIB0   VS1 1212   3.681   2.748   0.923 -0.1118 -0.1105  0.1953
    1GIB0    A2 1213   3.585   2.729   0.394 -0.1355 -0.0029 -0.1993
    1GIB0    B2 1214   3.323   2.924   0.198 -0.2313  0.0419 -0.0285
    1GIB0    C2 1215   3.125   2.745   0.490 -0.0936 -0.0480  0.0106
    1GIB0   VS2 1216   3.344   2.799   0.361 -0.1534 -0.0030 -0.0724
    1GIB0    A3 1217   3.183   3.131  -0.040  0.2449  0.0537 -0.0156
    1GIB0    B3 1218   3.300   3.368   0.080  0.1165  0.1169 -0.0144
    1GIB0    C3 1219   3.064   3.318   0.305  0.2496 -0.1113  0.0757
    1GIB0   VS3 1220   3.182   3.272   0.115  0.2036  0.0197  0.0153
    1GIB0   NOH 1221   3.843   2.978   1.900 -0.3337  0.0355  0.4618
    1GIB0   GLA 1222   3.816   2.819   2.135  0.0121  0.1796  0.1160
    1GIB0   GLB 1223   3.551   3.099   1.893  0.0152  0.2417  0.3624
    1GIB0   C1A 1224   3.916   2.982   2.592  0.0667  0.0622 -0.3421
    1GIB0   C2A 1225   3.911   3.271   2.979 -0.0053 -0.3453 -0.0123
    1GIB0   C3A 1226   4.164   3.321   3.428 -0.5368 -0.2792  0.2619
    1GIB0   C1B 1227   3.345   3.060   2.313 -0.3234 -0.5512  0.2143
    1GIB0   C2B 1228   3.154   2.916   2.720  0.3928 -0.2981 -0.1433
    1GIB0   C3B 1229   2.930   2.880   3.077  0.1117 -0.2492  0.0507
    1GIB0   C4B 1230   2.769   2.789   3.530  0.1372  0.4654 -0.2224
    1GIB0   C5B 1231   2.734   2.572   3.944  0.1674 -0.0689  0.1658
    1GIB0   PO4 1232   3.117   2.287   1.506 -0.0140  0.1095  0.1235
    1GIB0    A0 1233   2.971   1.918   1.534 -0.0799 -0.1111  0.0105
    1GIB0    B0 1234   3.181   1.872   1.234 -0.1320 -0.0612 -0.0337
    1GIB0    C0 1235   3.010   1.569   1.403  0.1274 -0.1269  0.1128
    1GIB0   VS0 1236   3.054   1.786   1.390 -0.0282 -0.0998  0.0299
    1GIB0    A1 1237   2.878   2.113   1.131  0.3912  0.1476 -0.2072
    1GIB0    B1 1238   2.746   1.981   0.830  0.0203 -0.0342  0.0304
    1GIB0    C1 1239   3.064   1.898   0.939  0.0012 -0.2907 -0.1049
    1GIB0    D1 1240   3.188   1.862   0.769 -0.1603 -0.6269 -0.1551
    1GIB0   VS1 1241   2.896   1.998   0.967  0.1376 -0.0591 -0.0939
    1GIB0    A2 1242   2.467   1.917   0.695  0.1291  0.0946  0.0634
    1GIB0    B2 1243   2.522   1.687   0.397 -0.0332  0.1926 -0.0427
    1GIB0    C2 1244   2.880   1.829   0.488  0.0648 -0.0860  0.0105
    1GIB0   VS2 1245   2.623   1.811   0.526  0.0535  0.0671  0.0104
    1GIB0    A3 1246   2.582   1.594   0.094 -0.0678  0.2037 -0.1786
    1GIB0    B3 1247   2.861   1.640   0.031  0.0296  0.1225  0.1832
    1GIB0    C3 1248   2.773   1.956   0.071  0.1024  0.1407  0.2004
    1GIB0   VS3 1249   2.739   1.730   0.065  0.0214  0.1557  0.0684
    1GIB0   NOH 1250   3.156   2.114   1.952  0.1650  0.1135  0.1111
    1GIB0   GLA 1251   3.131   1.885   2.125  0.2096 -0.2232  0.1207
    1GIB0   GLB 1252   2.977   2.352   1.984 -0.1434  0.0877  0.0539
    1GIB0   C1A 1253   3.092   1.690   2.500  0.0187  0.0564 -0.0142
    1GIB0   C2A 1254   3.225   1.572   2.958  0.0597  0.0261  0.4420
    1GIB0   C3A 1255   3.225   1.597   3.462  0.2865 -0.0375 -0.0140
    1GIB0   C1B 1256   3.159   2.473   2.445 -0.0748  0.0651  0.1141
    1GIB0   C2B 1257   3.053   2.416   2.921 -0.1380  0.0839 -0.0693
    1GIB0   C3B 1258   3.073   2.443   3.362 -0.1613  0.1093 -0.0905
    1GIB0   C4B 1259   3.263   2.601   3.805 -0.1592 -0.6018  0.2032
    1GIB0   C5B 1260   3.491   2.719   4.185  0.1074 -0.2202 -0.0860
    1POPC   NC3 1261   1.222   3.005   1.724  0.1590  0.0210  0.0975
    1POPC   PO4 1262   0.911   3.170   1.738 -0.4923 -0.2571  0.2820
    1POPC   GL1 1263   0.756   3.173   2.129  0.0552  0.0597 -0.1223
    1POPC   GL2 1264   0.813   3.462   2.183  0.0536 -0.1276  0.0470
    1POPC   C1A 1265   0.698   2.787   2.353 -0.2222  0.2613  0.2265
    1POPC   D2A 1266   0.677   2.358   2.424  0.2542 -0.1919  0.3912
    1POPC   C3A 1267   0.837   2.308   2.766 -0.0717  0.0233  0.1171
    1POPC   C4A 1268   0.754   2.287   3.271 -0.0146  0.1944  0.0043
    1POPC   C1B 1269   0.701   3.579   2.517 -0.0445  0.0763 -0.0016
    1POPC   C2B 1270   0.626   3.837   2.845  0.0625  0.0812  0.1180
    1POPC   C3B 1271   0.402   3.925   3.229  0.0114  0.0871 -0.0026
    1POPC   C4B 1272   0.234   4.031   3.710  0.6000  0.0108  0.0531
    1POPC   NC3 1273   2.074   0.361   1.687  0.1238 -0.0136 -0.1436
    1POPC   PO4 1274   2.166   0.776   1.776 -0.1009  0.3752 -0.2716
    1POPC   GL1 1275   2.318   0.815   2.248  0.3861  0.3014  0.5679
    1POPC   GL2 1276   2.372   0.501   2.234  0.1829 -0.2128  0.2182
    1POPC   C1A 1277   2.353   1.154   2.538  0.1097 -0.1328  0.1656
    1POPC   D2A 1278   2.242   1.231   3.024  0.3257 -0.2305  0.0294
    1POPC   C3A 1279   2.434   1.248   3.459  0.0976 -0.0326 -0.2170
    1POPC   C4A 1280   2.486   1.291   3.900 -0.0780 -0.1857  0.0750
    1POPC   C1B 1281   2.380   0.363   2.604 -0.3170  0.2406 -0.0103
    1POPC   C2B 1282   2.410   0.318   3.018 -0.0515  0.1132 -0.3209
    1POPC   C3B 1283   2.317   0.387   3.463 -0.3184  0.0666 -0.0660
    1POPC   C4B 1284   2.297   0.355   3.914 -0.2506 -0.2126  0.1602
    1POPC   NC3 1285   0.067   1.329   1.431  0.0377  0.2930 -0.1953
    1POPC   PO4 1286  -0.020   1.662   1.708 -0.2125 -0.2246  0.2805
    1POPC   GL1 1287  -0.098   1.503   2.118  0.0745  0.0880  0.2479
    1POPC   GL2 1288   0.142   1.642   2.267 -0.2119 -0.0712  0.1922
    1POPC   C1A 1289  -0.393   1.523   2.420  0.1851  0.0097 -0.3778
    1POPC   D2A 1290  -0.525   1.589   2.886 -0.2695  0.3399  0.3449
    1POPC   C3A 1291  -0.581   1.634   3.352 -0.0130  0.1924 -0.3959
    1POPC   C4A 1292  -0.634   1.743   3.836  0.0664  0.0800 -0.3448
    1POPC   C1B 1293   0.010   1.723   2.607 -0.1888 -0.0508 -0.1567
    1POPC   C2B 1294   0.032   1.594   2.998 -0.2200  0.3256 -0.1885
    1POPC   C3B 1295   0.050   1.519   3.488 -0.0085 -0.3372  0.2209
    1POPC   C4B 1296  -0.154   1.762   3.918 -0.1207 -0.1006 -0.2311
    1POPC   NC3 1297   0.714   3.597   1.752  0.0205 -0.0680  0.3092
    1POPC   PO4 1298   0.853   3.858   2.005  0.0424  0.3081 -0.0692
    1POPC   GL1 1299   1.005   3.842   2.427  0.2714  0.1364 -0.0052
    1POPC   GL2 1300   1.334   3.866   2.305  0.0682 -0.0367 -0.3980
    1POPC   C1A 1301   1.148   3.755   2.897 -0.0362  0.3285  0.0817
    1POPC   D2A 1302   0.880   3.604   3.338  0.2557  0.1415 -0.2812
    1POPC   C3A 1303   0.592   3.666   3.639  0.2727  0.2569  0.0470
    1POPC   C4A 1304   0.255   3.562   3.962  0.2838  0.2238 -0.2601
    1POPC   C1B 1305   1.445   3.862   2.609  0.1054  0.1055  0.0057
    1POPC   C2B 1306   1.692   3.843   2.926  0.1508 -0.1804 -0.0294
    1POPC   C3B 1307   1.856   3.885   3.428 -0.2383  0.4062  0.5058
    1POPC   C4B 1308   1.592   3.962   3.898 -0.0142  0.1369  0.3301
    1POPC   NC3 1309   3.411   1.854   1.660 -0.1008  0.1823  0.1594
    1POPC   PO4 1310   3.224   1.516   1.806 -0.1316 -0.0545 -0.1897
    1POPC   GL1 1311   3.249   1.374   2.147  0.0730  0.3068 -0.3824
    1POPC   GL2 1312   3.027   1.180   2.067  0.0983 -0.2986  0.1083
    1POPC   C1A 1313   3.407   1.333   2.575  0.2817  0.1064  0.1056
    1POPC   D2A 1314   3.497   1.212   3.024  0.3650  0.0402  0.0728
    1POPC   C3A 1315   3.473   1.170   3.478  0.1000 -0.0294  0.3392
    1POPC   C4A 1316   3.317   1.247   3.906 -0.2537  0.0393  0.0172
    1POPC   C1B 1317   2.925   1.244   2.415  0.0799 -0.1411 -0.0841
    1POPC   C2B 1318   2.839   1.198   2.805 -0.2418  0.0183 -0.2399
    1POPC   C3B 1319   2.823   1.432   3.211 -0.0050  0.2454  0.4350
    1POPC   C4B 1320   2.747   1.652   3.569 -0.2879 -0.0553 -0.1759
    1POPC   NC3 1321   1.238   0.490   2.037 -0.1517 -0.0788  0.1486
    1POPC   PO4 1322   0.989   0.774   2.174  0.1161  0.0106 -0.0815
    1POPC   GL1 1323   1.168   0.794   2.618  0.2209  0.1558 -0.0420
    1POPC   GL2 1324   1.395   0.628   2.537  0.4574 -0.3892 -0.3080
    1POPC   C1A 1325   1.258   0.871   3.075 -0.0774  0.0897 -0.0140
    1POPC   D2A 1326   1.432   0.932   3.524  0.1067  0.0101 -0.3034
    1POPC   C3A 1327   1.183   0.895   3.929 -0.4388  0.0520 -0.1852
    1POPC   C4A 1328   0.747   0.860   4.052  0.3906 -0.2371  0.1390
    1POPC   C1B 1329   1.568   0.717   2.820  0.2085 -0.1070 -0.0778
    1POPC   C2B 1330   1.674   0.489   3.113  0.0703  0.0619  0.0665
    1POPC   C3B 1331   1.626   0.495   3.567 -0.1350 -0.1593 -0.0341
    1POPC   C4B 1332   1.823   0.208   3.914 -0.0132 -0.2668 -0.0233
    1POPC   NC3 1333   2.875   3.504   1.575  0.0413  0.2113 -0.3898
    1POPC   PO4 1334   3.216   3.648   1.698 -0.0819 -0.2096 -0.0625
    1POPC   GL1 1335   3.308   3.730   2.153 -0.0746 -0.0072 -0.2107
    1POPC   GL2 1336   3.019   3.856   2.139  0.3345  0.0697  0.2922
    1POPC   C1A 1337   3.485   3.798   2.582  0.5252  0.2184 -0.1203
    1POPC   D2A 1338   3.605   3.622   3.020 -0.1073  0.2666 -0.1899
    1POPC   C3A 1339   3.600   3.562   3.425  0.0126  0.1778  0.3741
    1POPC   C4A 1340   3.479   3.778   3.820  0.0862  0.5722 -0.2829
    1POPC   C1B 1341   3.054   3.887   2.514 -0.0393  0.2037  0.0359
    1POPC   C2B 1342   3.129   3.923   2.954 -0.0088  0.1139 -0.0205
    1POPC   C3B 1343   3.055   3.987   3.487  0.1812 -0.2076 -0.2300
    1POPC   C4B 1344   3.090   3.972   3.989  0.1737  0.2349  0.1221
    1POPC   NC3 1345   2.214   3.618   1.943  0.1816  0.1052 -0.0340
    1POPC   PO4 1346   1.934   3.915   1.960  0.1659  0.3414  0.0142
    1POPC   GL1 1347   1.932   3.997   2.290 -0.1664  0.0099 -0.2444
    1POPC   GL2 1348   1.938   3.705   2.346  0.3636 -0.0785 -0.0090
    1POPC   C1A 1349   2.139   4.005   2.716 -0.2361  0.0966  0.1017
    1POPC   D2A 1350   2.399   3.993   3.151 -0.1087  0.2415 -0.1063
    1POPC   C3A 1351   2.475   3.845   3.563 -0.1389 -0.1503  0.2558
    1POPC   C4A 1352   2.635   3.717   3.995 -0.1218 -0.2742 -0.0986
    1POPC   C1B 1353   1.698   3.509   2.572 -0.2791  0.3065 -0.3344
    1POPC   C2B 1354   1.430   3.350   2.908 -0.2280 -0.0173  0.1673
    1POPC   C3B 1355   1.121   3.187   3.251  0.0730  0.6543  0.0905
    1POPC   C4B 1356   0.982   3.178   3.689 -0.0484 -0.2244 -0.3232
    1POPC   NC3 1357   1.305   3.897   1.750 -0.0086 -0.1894 -0.1011
    1POPC   PO4 1358   1.471   4.172   1.988 -0.1382 -0.0713 -0.0085
    1POPC   GL1 1359   1.225   4.319   2.334 -0.0500  0.0345 -0.0585
    1POPC   GL2 1360   1.422   4.495   2.428 -0.0177  0.1213  0.0528
    1POPC   C1A 1361   0.921   4.201   2.651  0.0414 -0.0906  0.4100
    1POPC   D2A 1362   0.903   4.113   3.170 -0.0031 -0.1368 -0.0966
    1POPC   C3A 1363   0.728   4.149   3.600  0.1455  0.0272  0.0418
    1POPC   C4A 1364   0.595   3.947   4.059 -0.3715 -0.1305 -0.0230
    1POPC   C1B 1365   1.544   4.322   2.730  0.0976 -0.1014 -0.0597
    1POPC   C2B 1366   1.409   4.178   3.107 -0.4836 -0.1644 -0.0162
    1POPC   C3B 1367   1.368   3.900   3.440  0.0079  0.1122  0.1090
    1POPC   C4B 1368   1.076   3.766   3.829  0.0381  0.1860  0.0105
    1POPC   NC3 1369   0.800   1.028   1.795 -0.1176 -0.1011  0.0090
    1POPC   PO4 1370   1.041   1.291   1.947 -0.0585  0.1133 -0.1583
    1POPC   GL1 1371   1.084   1.381   2.335 -0.0161  0.3850  0.0893
    1POPC   GL2 1372   1.028   1.627   2.292 -0.1447 -0.1359  0.1650
    1POPC   C1A 1373   0.940   1.287   2.763  0.0193 -0.1330 -0.1509
    1POPC   D2A 1374   0.999   1.253   3.286 -0.4548 -0.4434 -0.1824
    1POPC   C3A 1375   0.957   0.854   3.524 -0.1960  0.0889  0.1012
    1POPC   C4A 1376   0.919   0.461   3.781 -0.1453 -0.0676  0.0701
    1POPC   C1B 1377   0.802   1.709   2.592  0.1553  0.0079 -0.0338
    1POPC   C2B 1378   0.643   1.833   3.007  0.0401  0.0943 -0.1884
    1POPC   C3B 1379   0.491   1.893   3.452 -0.0245  0.0306  0.1048
    1POPC   C4B 1380   0.275   2.061   3.854  0.0583 -0.1307 -0.1852
    1POPC   NC3 1381   1.912   1.153   2.053  0.1575 -0.4216 -0.2883
    1POPC   PO4 1382   1.746   1.009   1.749  0.2031 -0.0959  0.1599
    1POPC   GL1 1383   1.599   0.729   2.026 -0.2095 -0.2449  0.3518
    1POPC   GL2 1384   1.429   0.997   2.186  0.1245 -0.1307 -0.3318
    1POPC   C1A 1385   1.855   0.775   2.434 -0.0109 -0.0051  0.0165
    1POPC   D2A 1386   2.083   0.789   2.869  0.3039 -0.2091 -0.0167
    1POPC   C3A 1387   2.097   0.785   3.343  0.1257  0.0511  0.2764
    1POPC   C4A 1388   2.065   0.786   3.798 -0.2147 -0.2576 -0.2743
    1POPC   C1B 1389   1.530   1.089   2.590  0.4273  0.1043 -0.1045
    1POPC   C2B 1390   1.780   1.184   2.826 -0.3725  0.2912 -0.1721
    1POPC   C3B 1391   1.838   1.231   3.318  0.0433  0.2429 -0.1741
    1POPC   C4B 1392   1.818   1.593   3.600 -0.2737  0.0753 -0.3901
    1POPC   NC3 1393   4.276   0.934   1.762  0.0017 -0.1212  0.1513
    1POPC   PO4 1394   4.328   0.565   1.596  0.4622 -0.0924  0.1079
    1POPC   GL1 1395   4.608   0.530   1.874 -0.1538  0.1332 -0.1178
    1POPC   GL2 1396   4.393   0.294   1.944 -0.0603  0.0583  0.1012
    1POPC   C1A 1397   4.600   0.832   2.173  0.0387  0.1484 -0.0688
    1POPC   D2A 1398   4.905   0.969   2.543 -0.1354 -0.3056 -0.2891
    1POPC   C3A 1399   4.915   0.920   3.046 -0.0947 -0.0572  0.2087
    1POPC   C4A 1400   4.786   1.044   3.553 -0.0400 -0.1109  0.2079
    1POPC   C1B 1401   4.281   0.243   2.287  0.2356 -0.0860 -0.0008
    1POPC   C2B 1402   4.138   0.376   2.674  0.5557 -0.0973  0.2839
    1POPC   C3B 1403   4.041   0.292   3.157  0.2848  0.0992  0.4741
    1POPC   C4B 1404   3.816   0.058   3.518 -0.2556  0.1769  0.0407
    1POPC   NC3 1405   2.595   0.016   1.463  0.0816 -0.1863 -0.4066
    1POPC   PO4 1406   2.299  -0.094   1.680 -0.1688 -0.0494  0.0832
    1POPC   GL1 1407   2.344  -0.172   2.121 -0.0659 -0.0675  0.4612
    1POPC   GL2 1408   2.136   0.041   2.154  0.0064 -0.3048  0.2305
    1POPC   C1A 1409   2.466  -0.455   2.390  0.2457  0.2996  0.2622
    1POPC   D2A 1410   2.712  -0.661   2.723  0.0673 -0.0552  0.1435
    1POPC   C3A 1411   2.421  -0.776   3.044 -0.0762 -0.0104  0.0679
    1POPC   C4A 1412   2.164  -0.819   3.464  0.1231  0.0656 -0.0990
    1POPC   C1B 1413   1.994   0.144   2.490 -0.1424  0.2447  0.0229
    1POPC   C2B 1414   1.948   0.133   2.877 -0.2706 -0.0282  0.0114
    1POPC   C3B 1415   1.926   0.124   3.341 -0.0098  0.0305 -0.0344
    1POPC   C4B 1416   2.156  -0.080   3.701 -0.0871  0.3597 -0.1739
    1POPC   NC3 1417   3.483   3.281   1.471  0.2230 -0.1432 -0.1226
    1POPC   PO4 1418   3.136   3.108   1.626 -0.1817  0.0407 -0.1247
    1POPC   GL1 1419   3.094   3.337   2.084  0.2043  0.0277  0.0690
    1POPC   GL2 1420   2.972   3.028   2.020  0.4884 -0.1677 -0.2435
    1POPC   C1A 1421   3.145   3.456   2.442 -0.1898  0.1679  0.0656
    1POPC   D2A 1422   3.086   3.376   2.908 -0.1584 -0.3650 -0.2295
    1POPC   C3A 1423   2.880   3.586   3.275  0.1928  0.0569 -0.1529
    1POPC   C4A 1424   2.609   3.322   3.672 -0.0832 -0.0977 -0.0647
    1POPC   C1B 1425   2.819   2.838   2.312 -0.1035  0.2635 -0.2285
    1POPC   C2B 1426   2.656   2.577   2.617 -0.1064 -0.0101 -0.2784
    1POPC   C3B 1427   2.577   2.314   3.010 -0.1149  0.0225 -0.1715
    1POPC   C4B 1428   2.643   2.293   3.541 -0.1888 -0.2508  0.0703
    1POPC   NC3 1429   3.287   2.685   1.796 -0.0007  0.1043 -0.1105
    1POPC   PO4 1430   3.575   2.415   1.713  0.0608 -0.1628  0.1150
    1POPC   GL1 1431   3.564   2.406   2.095  0.0891 -0.3417 -0.1265
    1POPC   GL2 1432   3.599   2.179   2.036 -0.1540  0.0168 -0.2123
    1POPC   C1A 1433   3.585   2.616   2.560  0.2845 -0.0917 -0.0360
    1POPC   D2A 1434   3.544   2.457   3.026  0.0946  0.2642  0.2934
    1POPC   C3A 1435   3.548   2.410   3.490  0.1135  0.4952 -0.0257
    1POPC   C4A 1436   3.670   2.292   3.897 -0.3062  0.7054 -0.0127
    1POPC   C1B 1437   3.525   1.991   2.323 -0.1404 -0.1946  0.4561
    1POPC   C2B 1438   3.387   2.081   2.674 -0.1784  0.0972 -0.0456
    1POPC   C3B 1439   3.339   1.999   3.212  0.3596 -0.2922  0.0800
    1POPC   C4B 1440   3.136   2.054   3.658 -0.0116 -0.0424 -0.2784
    1POPC   NC3 1441   0.459   0.021   1.794 -0.1440  0.1084 -0.0023
    1POPC   PO4 1442   0.336  -0.352   1.698 -0.1375 -0.2082 -0.3093
    1POPC   GL1 1443   0.293  -0.436   2.073  0.0057 -0.1476 -0.0193
    1POPC   GL2 1444   0.425  -0.156   2.216  0.4796 -0.2127  0.3371
    1POPC   C1A 1445   0.276  -0.592   2.478  0.0156  0.1046  0.2181
    1POPC   D2A 1446   0.163  -0.648   2.946  0.2422 -0.2196 -0.3053
    1POPC   C3A 1447   0.453  -0.938   3.140 -0.0904 -0.2163 -0.0087
    1POPC   C4A 1448   0.409  -1.073   3.583 -0.1001 -0.0714  0.2631
    1POPC   C1B 1449   0.492  -0.107   2.550 -0.0776 -0.1047 -0.2300
    1POPC   C2B 1450   0.549   0.068   2.911  0.0216 -0.1348 -0.1543
    1POPC   C3B 1451   0.673   0.301   3.323  0.1053 -0.1128  0.0284
    1POPC   C4B 1452   0.492   0.328   3.782  0.1063  0.0437  0.0054
    1POPC   NC3 1453   0.744   1.933   2.168 -0.0406  0.2120  0.0317
    1POPC   PO4 1454   0.417   1.905   1.931 -0.2149 -0.0527 -0.2707
    1POPC   GL1 1455   0.201   2.146   2.283  0.1449 -0.3417 -0.1830
    1POPC   GL2 1456   0.381   1.924   2.446  0.1027  0.2351  0.0046
    1POPC   C1A 1457   0.207   2.450   2.566 -0.0021  0.1497  0.1489
    1POPC   D2A 1458   0.502   2.639   2.928 -0.0238  0.0953  0.1333
    1POPC   C3A 1459   0.799   2.765   3.240 -0.3155 -0.4930 -0.1504
    1POPC   C4A 1460   1.170   2.737   3.581  0.2357 -0.0819  0.1663
    1POPC   C1B 1461   0.305   2.053   2.768 -0.1807  0.2581  0.0728
    1POPC   C2B 1462   0.096   2.164   3.100 -0.0801  0.1871  0.1834
    1POPC   C3B 1463  -0.101   2.494   3.412 -0.0193 -0.2065  0.1968
    1POPC   C4B 1464  -0.095   2.893   3.651 -0.2373  0.1049 -0.1191
    1POPC   NC3 1465   4.138   3.199   1.653 -0.0048  0.2963  0.0260
    1POPC   PO4 1466   4.138   3.588   1.793 -0.1687 -0.1713 -0.2540
    1POPC   GL1 1467   4.148   3.718   2.225  0.3834  0.3577  0.0681
    1POPC   GL2 1468   4.147   3.381   2.200 -0.2014  0.1420 -0.0589
    1POPC   C1A 1469   3.995   3.752   2.673  0.0052  0.1566  0.1241
    1POPC   D2A 1470   4.079   3.836   3.164 -0.0631 -0.0094  0.0490
    1POPC   C3A 1471   4.022   3.862   3.667 -0.0579 -0.0410  0.0414
    1POPC   C4A 1472   3.890   3.815   4.136 -0.0566  0.0558 -0.1204
    1POPC   C1B 1473   4.258   3.319   2.540  0.5942  0.0637  0.3434
    1POPC   C2B 1474   4.310   3.048   2.849  0.1864  0.0633  0.1123
    1POPC   C3B 1475   4.511   2.859   3.251 -0.0020  0.0457 -0.0319
    1POPC   C4B 1476   4.620   2.412   3.442  0.1860  0.4272  0.1015
    1W        W 1477   2.255   4.201   6.563 -0.0186  0.0925  0.1481
    1W        W 1478   2.579   2.212   0.384  0.4749 -0.1700 -0.2416
    1W        W 1479   0.856   2.898   7.759 -0.0863 -0.2209 -0.2010
    1W        W 1480   3.447   0.501   1.714 -0.0506 -0.2505  0.3211
    1W        W 1481   0.421   2.952   1.822  0.1137 -0.3451  0.4785
    1W        W 1482   0.032   2.959   0.175  0.2319 -0.0839 -0.1157
    1W        W 1483   3.570   1.298   7.837  0.0410 -0.1226  0.4257
    1W        W 1484   3.073   2.053   6.201 -0.3492 -0.0522  0.1811
    1W        W 1485   2.806   2.629   1.645 -0.1084  0.0075 -0.0198
    1W        W 1486   1.966   3.137   1.116 -0.1818  0.1954  0.1248
    1W        W 1487   2.570   3.586   7.642  0.3837 -0.1531  0.1850
    1W        W 1488   2.422   0.230   0.387 -0.1842  0.0234  0.2678
    1W        W 1489   3.324   2.487   0.081  0.2045 -0.2410  0.1704
    1W        W 1490   1.067   1.396   0.569 -0.1480  0.0327 -0.1469
    1W        W 1491   3.042   3.481   0.754  0.2456  0.0316  0.1529
    1W        W 1492   1.678   2.462   6.915 -0.5127 -0.1193  0.0256
    1W        W 1493   2.406   2.683   6.966 -0.0541 -0.2395 -0.0702
    1W        W 1494   4.178   2.634   6.609  0.0273 -0.0787 -0.1287
    1W        W 1495   0.199   3.512   7.776  0.2048  0.1971 -0.1260
    1W        W 1496   1.119   0.171   0.495 -0.2199  0.1627  0.4091
    1W        W 1497   2.831   2.882   6.803 -0.0135  0.0762 -0.2564
    1W        W 1498   1.694   0.840   7.198  0.0709 -0.0951  0.2080
    1W        W 1499   2.509   4.260   8.021  0.2999  0.0297  0.3510
    1W        W 1500   2.991   2.887   6.226 -0.1491 -0.2231 -0.0706
    1W        W 1501   1.853   3.219   5.940  0.1319 -0.2245  0.2253
    1W        W 1502   1.154   0.199   8.077 -0.1355 -0.3210 -0.0186
    1W        W 1503   1.868   1.629   1.826 -0.1393  0.0660  0.3454
    1W        W 1504   2.171   3.585   7.232  0.2979  0.1130  0.2771
    1W        W 1505   3.499   1.509   6.624  0.0366 -0.1998 -0.4004
    1W        W 1506   0.519   1.445   0.669  0.0527  0.0289  0.0605
    1W        W 1507   3.339   0.184   1.294  0.0808  0.0645 -0.2278
    1W        W 1508   0.484   3.781   0.059  0.1772 -0.0091  0.0684
    1W        W 1509   3.737   2.290   0.437 -0.1775 -0.2425 -0.1434
    1W        W 1510   3.877   0.424   1.552 -0.5366 -0.1040  0.0860
    1W        W 1511   2.754   2.989   7.336 -0.0785 -0.4850 -0.0514
    1W        W 1512   0.102   0.877   7.352 -0.1808  0.3132  0.1836
    1W        W 1513   2.296   3.173   7.493  0.0647 -0.0166  0.1927
    1W        W 1514   1.415   0.216   7.629  0.1079 -0.0061  0.0123
    1W        W 1515   2.326   2.659   0.533 -0.1110 -0.1577 -0.1024
    1W        W 1516   0.514   2.910   0.520 -0.0811  0.0891  0.2411
    1W        W 1517   3.973   3.082   6.612 -0.1725  0.0746  0.0216
    1W        W 1518   0.286   1.919   7.213 -0.0919  0.0649  0.2652
    1W        W 1519   0.921   1.137   6.475 -0.0182  0.2402 -0.2741
    1W        W 1520   2.507   3.852   6.282 -0.1135  0.3566  0.2251
    1W        W 1521   1.609   0.518   1.644  0.0151 -0.0015 -0.1774
    1W        W 1522   0.775   3.657   7.716 -0.1685 -0.1162  0.0314
    1W        W 1523   0.562   2.425   7.922  0.0623  0.1428  0.1528
    1W        W 1524   3.982   0.304   7.796 -0.1039  0.1773 -0.1318
    1W        W 1525   2.513   1.212   2.025 -0.2786 -0.2659  0.0620
    1W        W 1526   1.324   2.074   6.960  0.0825 -0.3121 -0.1028
    1W        W 1527   0.108   3.986   7.872 -0.0653  0.3099 -0.0189
    1W        W 1528   0.355   2.421   1.839 -0.3504  0.1652 -0.1637
    1W        W 1529   2.325   2.580   7.431 -0.2455  0.0605 -0.0068
    1W        W 1530   2.232   0.941   0.844  0.2683 -0.0063  0.4598
    1W        W 1531   4.030   1.247   7.614  0.1551  0.0612  0.1990
    1W        W 1532   2.389   1.262   8.008 -0.0436  0.1512  0.0837
    1W        W 1533   0.825   2.228   1.777  0.0054  0.2047 -0.1532
    1W        W 1534   2.833   2.935   0.246  0.1506 -0.2906 -0.0931
    1W        W 1535   0.563   0.453   7.670  0.0302 -0.3409  0.3024
    1W        W 1536   4.088   3.090   1.145 -0.0613 -0.0449  0.3068
    1W        W 1537   2.348   3.090   5.975 -0.0441  0.1185  0.3534
    1W        W 1538   1.784   4.266   1.605  0.3465 -0.0154 -0.0114
    1W        W 1539   2.239   1.765   6.934  0.2565  0.0966  0.1481
    1W        W 1540   1.749   1.676   0.298  0.0957 -0.1322 -0.1921
    1W        W 1541   1.742   0.176   6.069  0.0133  0.1316  0.1411
    1W        W 1542   2.581   1.033   1.567 -0.1298 -0.0608 -0.0991
    1W        W 1543   3.604   1.034   7.304  0.1773  0.0496 -0.3068
    1W        W 1544   1.352   0.902   6.816 -0.0728  0.2198  0.2429
    1W        W 1545   0.421   2.604   6.498 -0.2962  0.2253 -0.0078
    1W        W 1546   0.517   0.951   7.635 -0.2145  0.0701  0.1047
    1W        W 1547   2.109   2.688   7.928  0.0610 -0.0780 -0.0169
    1W        W 1548   3.319   1.441   0.645 -0.0633 -0.1621  0.2135
    1W        W 1549   2.486   2.085   7.450 -0.2822 -0.2503 -0.0703
    1W        W 1550   1.696   1.073   0.938  0.1026 -0.0315 -0.0378
    1W        W 1551   0.815   3.289   1.271 -0.0430 -0.0290  0.2512
    1W        W 1552   0.306   3.394   2.066 -0.0045 -0.0551  0.2385
    1W        W 1553   2.008   2.830   6.204 -0.1233 -0.1539  0.1032
    1W        W 1554   3.478   0.862   0.143  0.3258  0.3815 -0.3548
    1W        W 1555   0.564   1.966   0.867 -0.2233 -0.1582 -0.2271
    1W        W 1556   1.951   1.352   0.631 -0.3030  0.0854  0.0376
    1W        W 1557   3.435   3.198   0.532  0.3502  0.1440 -0.0714
    1W        W 1558   2.821   1.317   7.722 -0.2250  0.0618 -0.0315
    1W        W 1559   3.585   0.728   0.652  0.0254  0.2528 -0.0407
    1W        W 1560   1.063   1.100   7.821  0.3955 -0.2838  0.0483
    1W        W 1561   1.701   2.764   1.165 -0.1393  0.2084  0.2088
    1W        W 1562   1.841   0.029   6.952  0.0477  0.1232  0.0081
    1W        W 1563   0.589   2.346   0.328  0.4663  0.2059  0.0137
    1W        W 1564   2.140   0.097   1.253 -0.0523 -0.1239 -0.2024
    1W        W 1565   0.333   3.324   1.559 -0.2252 -0.0309  0.1172
    1W        W 1566   1.880   3.471   6.704 -0.2103 -0.0007 -0.0152
    1W        W 1567   0.508   3.677   1.275 -0.2379  0.0473  0.0889
    1W        W 1568   1.988   2.990   6.723 -0.2027  0.2027 -0.0037
    1W        W 1569   1.318   3.425   0.472  0.1986  0.0754 -0.0727
    1W        W 1570   4.082   3.186   7.860 -0.1361  0.0007 -0.2152
    1W        W 1571   3.340   3.485   7.719  0.0370 -0.3132  0.2645
    1W        W 1572   1.237   0.998   1.203 -0.1600 -0.0946  0.2449
    1W        W 1573   3.084   1.052   1.596 -0.3576  0.1581 -0.3290
    1W        W 1574   0.991   1.314   1.435 -0.2093  0.0559  0.0750
    1W        W 1575   2.792   3.398   6.896  0.3023  0.0272 -0.1611
    1W        W 1576   3.822   2.261   5.892 -0.2835 -0.3473  0.0390
    1W        W 1577   0.338   2.064   7.674 -0.1329 -0.2602 -0.0705
    1W        W 1578   3.853   2.373   6.878 -0.2340  0.1133  0.3094
    1W        W 1579   2.886   1.206   1.151 -0.4905  0.3605 -0.1690
    1W        W 1580   0.445   2.267   6.915 -0.2349 -0.1688  0.2561
    1W        W 1581   3.667   1.290   0.304 -0.1643  0.1123 -0.2623
    1W        W 1582   0.866   1.654   7.880 -0.1580  0.1259  0.2505
    1W        W 1583   3.265   2.083   7.908  0.1214 -0.3403  0.0769
    1W        W 1584   2.881   2.408   6.516 -0.1638 -0.2968 -0.2124
    1W        W 1585   1.554   3.754   8.029  0.1223 -0.0582 -0.1758
    1W        W 1586   2.060   1.770   0.866 -0.2304 -0.0148 -0.2805
    1W        W 1587   4.177   2.527   6.152 -0.2287  0.1501  0.1983
    1W        W 1588   0.869   1.759   1.700 -0.0402  0.1364  0.0850
    1W        W 1589   1.830   0.375   2.103 -0.0247 -0.3915  0.1127
    1W        W 1590   0.822   2.095   7.678 -0.1032 -0.0886 -0.1359
    1W        W 1591   4.276   2.257   1.390 -0.0731 -0.0122  0.0764
    1W        W 1592   1.621   2.406   7.419  0.5229 -0.1181  0.0705
    1W        W 1593   2.493   0.715   0.513 -0.1722  0.0614  0.0880
    1W        W 1594   1.014   1.838   0.732 -0.1543 -0.2411 -0.2473
    1W        W 1595   2.146   1.782   1.426  0.0109  0.2716  0.0413
    1W        W 1596   0.878   2.703   1.877  0.0535  0.1500 -0.2556
    1W        W 1597   2.999   3.468   7.326  0.1129 -0.0885 -0.0067
    1W        W 1598   3.559   3.704   0.825 -0.0223  0.1171 -0.0337
    1W        W 1599   0.907   3.239   0.811  0.1271  0.0521 -0.0737
    1W        W 1600   0.755   2.931   7.179 -0.1109 -0.0618  0.1544
    1W        W 1601   3.117   3.962   7.873  0.0529 -0.1944  0.0769
    1W        W 1602   0.436   4.231   1.281  0.1108  0.1717  0.1041
    1W        W 1603   3.333   1.065   1.017  0.0369  0.0044  0.1950
    1W        W 1604   4.198   2.029   7.475 -0.1229  0.0578 -0.1341
    1W        W 1605   1.971   2.939   0.696 -0.2913  0.1781 -0.1285
    1W        W 1606   4.215   2.516   7.736 -0.1213  0.1121  0.0294
    1W        W 1607   3.628   0.620   1.186  0.1237  0.0268  0.1820
    1W        W 1608   1.860   0.845   0.497  0.3153  0.1843 -0.0327
    1W        W 1609   0.347   4.209   0.283  0.1905  0.0420 -0.2924
    1W        W 1610   2.211   4.264   6.069  0.0697  0.1527  0.2200
    1W        W 1611   0.037   3.934   1.358  0.0284  0.3164  0.4443
    1W        W 1612   0.614   2.227   6.180 -0.0111 -0.1361 -0.1423
    1W        W 1613   3.879   1.441   7.138  0.1507 -0.3938 -0.5503
    1W        W 1614   2.396   2.545   6.486  0.0199  0.2986 -0.1363
    1W        W 1615   0.209   0.366   1.130 -0.1585  0.0749  0.0629
    1W        W 1616   1.762   1.650   7.541 -0.2907 -0.1809  0.0520
    1W        W 1617   2.108   0.266   8.052  0.1557 -0.1046 -0.1321
    1W        W 1618   1.546   1.315   1.403 -0.2047 -0.0220  0.0980
    1W        W 1619   3.169   1.720   6.924 -0.0724  0.1316 -0.5011
    1W        W 1620   2.329   4.017   7.601  0.3862 -0.2816  0.2077
    1W        W 1621   2.572   2.237   6.870 -0.0874 -0.0389 -0.0933
    1W        W 1622   0.196   0.258   7.929 -0.3542 -0.2438 -0.5767
    1W        W 1623   3.710   0.417   0.276 -0.0473 -0.3483  0.3218
    1W        W 1624   0.280   3.950   6.771 -0.2096 -0.0890  0.4424
    1W        W 1625   0.615   4.194   7.893 -0.2901 -0.2525 -0.0554
    1W        W 1626   0.447   3.449   0.493 -0.1540  0.2029  0.3826
    1W        W 1627   1.724   3.994   1.142  0.2167 -0.0698  0.1821
    1W        W 1628   3.441   1.318   6.111  0.0823 -0.2291  0.3081
    1W        W 1629   1.297   0.124   1.516 -0.0189 -0.2158  0.2110
    1W        W 1630   0.924   0.639   0.522  0.1628  0.2214 -0.1168
    1W        W 1631   2.385   3.669   0.740  0.2082  0.0457 -0.0264
    1W        W 1632   1.490   0.850   7.969 -0.2009  0.0445  0.1769
    1W        W 1633   3.113   0.706   1.276 -0.0815  0.2422 -0.0978
    1W        W 1634   3.944   4.079   7.758 -0.0934 -0.0453 -0.4651
    1W        W 1635   0.349   2.773   6.927  0.0287 -0.1402 -0.2936
    1W        W 1636   0.507   1.334   7.325 -0.0480  0.3127 -0.0788
    1W        W 1637   4.262   1.816   7.967  0.3676 -0.0559 -0.2694
    1W        W 1638   0.122   3.035   7.345  0.2056  0.0926 -0.2745
    1W        W 1639   1.124   1.025   0.227  0.0501  0.1977 -0.2535
    1W        W 1640   2.380   3.144   7.015  0.2802 -0.0038 -0.0371
    1W        W 1641   3.225   3.604   1.206 -0.1358 -0.0162 -0.1629
    1W        W 1642   1.097   4.033   7.860  0.0816 -0.1501  0.4092
    1W        W 1643   2.719   4.143   6.631  0.1124  0.1702 -0.2332
    1W        W 1644   1.768   3.704   0.383  0.4089  0.4071 -0.0895
    1W        W 1645   1.397   0.711   7.546 -0.3954  0.0842  0.0382
    1W        W 1646   2.082   2.265   7.089  0.0749 -0.1806 -0.1894
    1W        W 1647   2.670   3.469   1.104 -0.0691 -0.0083  0.2085
    1W        W 1648   1.371   2.217   0.680  0.0934  0.4533  0.1491
    1W        W 1649   2.866   0.031   0.436 -0.4522  0.1986  0.2429
    1W        W 1650   1.944   0.090   0.812 -0.0082 -0.2454  0.0011
    1W        W 1651   1.214   1.519   0.106  0.4505 -0.3452 -0.2006
    1W        W 1652   4.253   2.162   6.757  0.0589  0.3363 -0.2950
    1W        W 1653   3.264   2.504   7.622  0.1696 -0.0937 -0.2812
    1W        W 1654   0.984   2.042   1.274  0.1127 -0.1932  0.2357
    1W        W 1655   1.838   2.350   6.392  0.0884 -0.1135 -0.1123
    1W        W 1656   0.912   3.718   0.518 -0.2941 -0.1051  0.0555
    1W        W 1657   2.771   3.936   1.802  0.3209  0.0174  0.0055
    1W        W 1658   1.248   3.040   8.044 -0.0425  0.0534  0.1669
    1W        W 1659   1.251   0.937   0.713 -0.0564 -0.1826 -0.1467
    1W        W 1660   1.423   0.027   0.895  0.0389 -0.1082 -0.1653
    1W        W 1661   2.493   3.529   0.269 -0.1546 -0.0819 -0.2008
    1W        W 1662   0.203   2.917   7.833  0.2230  0.0835  0.1659
    1W        W 1663   3.462   1.361   1.389 -0.0325  0.0177 -0.0450
    1W        W 1664   1.365   1.595   7.152  0.0510 -0.1767  0.0744
    1W        W 1665   3.017   3.941   6.973  0.3969  0.3623 -0.2335
    1W        W 1666   3.141   3.992   0.672 -0.0689 -0.0812  0.4584
    1W        W 1667   1.274   0.912   1.660  0.0949 -0.0267 -0.1052
    1W        W 1668   1.353   3.781   0.868 -0.0278  0.0336  0.1238
    1W        W 1669   3.606   1.680   1.005  0.0161 -0.3113 -0.0877
    1W        W 1670   1.867   0.492   7.701 -0.1639 -0.0026  0.2481
    1W        W 1671   2.760   1.928   6.574  0.1142 -0.0071  0.1978
    1W        W 1672   2.055   0.364   6.436  0.2203  0.1457  0.0884
    1W        W 1673   0.149   0.868   1.238  0.2699  0.0384  0.0161
    1W        W 1674   0.408   3.664   7.226 -0.3609 -0.0040  0.0901
    1W        W 1675   1.046   3.595   0.056 -0.0982  0.1524  0.2777
    1W        W 1676   3.686   3.113   0.041 -0.0351  0.0764  0.1974
    1W        W 1677   1.988   1.001   7.775 -0.2974  0.1717 -0.1473
    1W        W 1678   3.889   1.321   1.723 -0.2223 -0.1295  0.3333
    1W        W 1679   2.107   2.089   1.912 -0.1942 -0.1061 -0.0632
    1W        W 1680   0.806   1.758   0.287 -0.1989  0.0650  0.1809
    1W        W 1681   3.522   2.133   1.274  0.0485  0.1238  0.4286
    1W        W 1682   2.717   1.795   7.068 -0.0217  0.2558  0.1761
    1W        W 1683   3.117   0.628   0.798  0.1510 -0.3621  0.1621
    1W        W 1684   2.342   2.994   0.152 -0.1382  0.0086  0.1740
    1W        W 1685   0.867   4.095   0.228  0.3145 -0.0435  0.2351
    1W        W 1686   1.438   0.655   0.299 -0.1555 -0.1131  0.0106
    1W        W 1687   2.170   2.065   6.567 -0.0388 -0.2582 -0.3710
    1W        W 1688   0.012   0.076   1.581  0.3424  0.0655 -0.0652
    1W        W 1689   1.603   0.309   0.012  0.0475 -0.2461 -0.3790
    1W        W 1690   1.559   1.245   0.394 -0.0623  0.1676  0.1393
    1W        W 1691   3.182   1.279   0.089 -0.0389  0.0769  0.2745
    1W        W 1692   3.354   2.207   7.061  0.1712 -0.1032  0.0892
    1W        W 1693   3.941   4.033   0.867  0.1884  0.4653 -0.1572
    1W        W 1694   3.655   1.816   0.503 -0.0238  0.0395 -0.1127
    1W        W 1695   2.369   3.546   6.716 -0.1213 -0.0592  0.2227
    1W        W 1696   1.363   2.187   6.471  0.1149 -0.0768  0.0563
    1W        W 1697   3.580   4.242   0.023  0.2085 -0.0620  0.3049
    1W        W 1698   3.375   0.127   0.475 -0.0163 -0.0117  0.1828
    1W        W 1699   2.168   1.286   1.635  0.2417  0.0061  0.1839
    1W        W 1700   1.973   4.241   0.349 -0.0939  0.1203 -0.0574
    1W        W 1701   2.603   2.433   0.896 -0.2606 -0.0562 -0.0110
    1W        W 1702   1.968   2.814   7.194 -0.0669  0.0976 -0.0539
    1W        W 1703   2.895   0.311   1.135  0.0002 -0.2661  0.0842
    1W        W 1704   1.470   3.168   0.876  0.2376 -0.0736  0.2913
    1W        W 1705   4.098   0.041   0.107  0.2688 -0.0136 -0.0146
    1W        W 1706   1.282   1.511   1.054  0.3597 -0.1632  0.0292
    1W        W 1707   0.973   0.050   1.874 -0.0400  0.4082  0.1283
    1W        W 1708   0.196   1.612   1.027  0.1472  0.0169  0.1093
    1W        W 1709   3.461   3.787   0.063  0.1141  0.0705  0.0705
    1W        W 1710   0.517   3.274   8.076 -0.3597 -0.2234 -0.1724
    1W        W 1711   0.351   1.879   1.458 -0.1562 -0.2486 -0.0274
    1W        W 1712   3.362   2.033   6.618 -0.3647 -0.0941  0.0547
    1W        W 1713   0.149   3.616   0.882 -0.1854 -0.1762  0.0419
    1W        W 1714   1.504   1.851   8.000 -0.2697 -0.0514  0.1824
    1W        W 1715   2.785   0.945   0.132 -0.4945  0.1967 -0.1469
    1W        W 1716   3.989   1.069   8.075 -0.2948 -0.0003 -0.2547
    1W        W 1717   1.575   1.028   6.012 -0.1750  0.2291  0.1523
    1W        W 1718   4.052   0.932   0.510 -0.0289  0.0675 -0.0087
    1W        W 1719   3.373   3.160   1.017 -0.4240  0.1112  0.0676
    1W        W 1720   3.358   3.869   7.390 -0.0545  0.0888 -0.0068
    1W        W 1721   3.618   1.846   7.268 -0.1090  0.0825 -0.1933
    1W        W 1722   0.722   1.585   1.089 -0.1497 -0.0666  0.3290
    1W        W 1723   3.859   1.868   6.747 -0.3224  0.1307 -0.0586
    1W        W 1724   0.365   3.208   1.055  0.0156  0.2213 -0.1686
    1W        W 1725   0.913   3.188   0.324  0.0774 -0.2524 -0.0645
    1W        W 1726   1.175   0.524   7.132 -0.1579 -0.2309  0.2366
    1W        W 1727   2.501   3.889   7.089  0.2264  0.0479  0.0896
    1W        W 1728   3.437   0.069   7.662  0.1385 -0.2869  0.2408
    1W        W 1729   2.365   1.137   6.261 -0.0420  0.0147 -0.0207
    1W        W 1730   3.274   1.726   0.251 -0.1934 -0.0482  0.4301
    1W        W 1731   0.718   1.297   0.134 -0.1907 -0.1295 -0.2508
    1W        W 1732   1.175   0.357   6.622  0.3114  0.0854 -0.1618
    1W        W 1733   2.838   0.180   6.951 -0.0468  0.0419 -0.1819
    1W        W 1734   2.682   0.781   0.997 -0.2942  0.0395 -0.2107
    1W        W 1735   3.914   3.534   6.246  0.1864  0.1406 -0.2908
    1W        W 1736   0.875   2.726   0.187  0.0280  0.1221 -0.0002
    1W        W 1737   4.125   0.719   6.912  0.0852  0.2399  0.0636
    1W        W 1738   3.189   3.045   7.607  0.0221 -0.0173  0.2293
    1W        W 1739   2.593   0.498   0.013 -0.2335  0.4186 -0.0723
    1W        W 1740   2.429   0.252   0.904 -0.0684  0.2314  0.0302
    1W        W 1741   0.145   2.215   0.084  0.3002  0.0721  0.0787
    1W        W 1742   1.736   1.377   7.989  0.0416  0.0689 -0.1732
    1W        W 1743   2.613   3.218   0.630 -0.0494  0.1456  0.1259
    1W        W 1744   0.050   2.405   7.197  0.3377 -0.1440  0.0620
    1W        W 1745   2.977   0.133   8.035 -0.0110 -0.3228  0.0958
    1W        W 1746   2.575   2.847   7.786  0.0869 -0.1435 -0.0516
    1W        W 1747   2.397   4.007   1.069  0.2301 -0.1948 -0.0282
    1W        W 1748   3.906   1.678   7.625 -0.0574 -0.1097 -0.2067
    1W        W 1749   1.197   0.318   6.146 -0.4766 -0.1162 -0.4966
    1W        W 1750   2.851   1.869   7.708 -0.0743  0.0704  0.2394
    1W        W 1751   0.724   0.449   6.832 -0.2081 -0.1520  0.1825
    1W        W 1752   0.514   3.200   7.572  0.0366 -0.1199  0.1939
    1W        W 1753   0.400   2.642   7.477  0.3789 -0.0626 -0.2166
    1W        W 1754   2.470   2.281   7.895 -0.1670  0.0614 -0.0220
    1W        W 1755   2.983   1.294   6.756 -0.0231  0.0420 -0.3526
    1W        W 1756   0.483   2.316   1.339  0.0517 -0.0669 -0.0271
    1W        W 1757   3.966   0.401   0.834  0.1626 -0.1858  0.0575
    1W        W 1758   2.439   3.746   1.496  0.1640  0.1798 -0.0172
    1W        W 1759   3.421   0.444   8.006  0.1129  0.0396 -0.0582
    1W        W 1760   0.038   3.189   0.617 -0.0587 -0.2974  0.1661
    1W        W 1761   4.160   0.605   0.027 -0.0542  0.2312  0.3050
    1W        W 1762   1.296   2.681   0.889  0.2095  0.0523  0.1551
    1W        W 1763   0.694   0.301   0.116 -0.1154 -0.1339  0.0975
    1W        W 1764   0.723   3.978   7.310 -0.2450 -0.1336 -0.2781
    1W        W 1765   0.907   4.018   1.505 -0.2483 -0.3392 -0.0525
    1W        W 1766   2.153   0.787   7.362  0.0228  0.2200  0.2692
    1W        W 1767   0.937   0.138   7.554 -0.6307 -0.0364  0.0650
    1W        W 1768   2.095   1.383   1.144  0.2394 -0.1391  0.1882
    1W        W 1769   1.150   4.178   6.406 -0.0382 -0.1407 -0.1711
    1W        W 1770   4.019   1.510   0.766  0.2411  0.0734  0.0124
    1W        W 1771   1.144   0.448   0.915 -0.2004  0.3123  0.0317
    1W        W 1772   0.273   0.417   7.254  0.1704  0.0648 -0.1846
    1W        W 1773   3.164   1.015   0.503 -0.3262 -0.0476 -0.1289
    1W        W 1774   2.977   0.515   0.353 -0.0407 -0.0499 -0.0331
    1ION     NA 1775   2.844   1.312   1.759 -0.2570  0.0003  0.4151
    1ION     NA 1776   0.089   0.532   7.648 -0.1320  0.0431  0.0396
    1ION     NA 1777   2.091   4.176   7.273  0.3080 -0.3957 -0.0191
    1ION     NA 1778   0.220   2.264   0.631  0.1797 -0.5143 -0.2888
    1ION     CL 1779   4.234   0.898   7.785  0.1668 -0.0418  0.3736
    1ION     CL 1780   1.644   1.245   6.940  0.0382  0.2161  0.1216
    1ION     CL 1781   1.466   0.719   0.988 -0.1138 -0.3016 -0.8096
    1ION     CL 1782   3.320   3.607   0.451  0.0114  0.5446  0.1643
    1ION     NA 1783   0.553   2.243   7.391 -0.6010 -0.0457  0.2133
    1ION     NA 1784   3.867   2.378   1.284  0.1214 -0.0858  0.2756
    1ION     NA 1785   3.072   3.048   0.733 -0.1245 -0.0669 -0.4210
    1ION     NA 1786   2.121   1.824   0.470  0.2128  0.1986  0.0830
    1ION     NA 1787   2.174   0.399   0.648 -0.0287 -0.1653  0.3282
    1ION     NA 1788   4.267   4.219   6.954  0.0884  0.2193 -0.0301
    1ION     NA 1789   3.492   2.071   0.166  0.5483 -0.0944 -0.4033
    1ION     NA 1790   2.116   3.791   6.474 -0.0471 -0.0922  0.1142
    1ION     NA 1791   0.010   2.086   1.808 -0.3397 -0.0379 -0.1897
    1ION     NA 1792   4.066   0.566   1.188  0.0195 -0.2080  0.2882
    1ION     NA 1793   3.701   3.422   6.592  0.4108 -0.4227 -0.1433
    1ION     NA 1794   3.640   3.796   7.744  0.0822 -0.4064 -0.0111
    1ION     NA 1795   2.644   1.073   6.599 -0.0410 -0.1315 -0.0285
    1ION     NA 1796   4.007   1.013   7.200  0.4108  0.3742 -0.1569
    1ION     NA 1797   1.116   2.900   7.386  0.0074 -0.0576  0.3817
    1ION     NA 1798   0.151   0.695   0.417 -0.1658 -0.5980 -0.1040
    1ION     NA 1799   3.175   0.505   6.775 -0.2982 -0.1472  0.0561
    1ION     NA 1800   1.755   3.139   6.393 -0.1211  0.0747  0.5692
    1ION     NA 1801   1.534   1.998   7.473 -0.1433  0.1582  0.2244
    1ION     NA 1802   0.895   0.778   0.929 -0.0636  0.3004 -0.2189
    1ION     NA 1803   1.000   0.715   6.577  0.2126 -0.4814 -0.3186
    1ION     NA 1804   1.194   3.416   1.045 -0.0785  0.1885  0.0041
    1ION     NA 1805   3.206   4.079   0.221 -0.1497 -0.0552  0.3299
    1ION     NA 1806   4.074   2.852   0.780 -0.0020 -0.0671  0.2651
    1ION     NA 1807   3.221   1.513   1.047  0.1558  0.2713  0.1620
    1ION     NA 1808   0.428   2.756   0.111  0.1244  0.6864  0.3788
    1ION     NA 1809   1.418   3.433   7.034  0.1208  0.1177 -0.1883
    1ION     NA 1810   3.425   2.819   7.896  0.3131 -0.2287 -0.1654
    1ION     NA 1811   1.611   0.807   1.290  0.0562  0.4785 -0.4607
    1ION     NA 1812   3.208   0.026   7.299  0.4102 -0.3516  0.0836
    1ION     NA 1813   3.553   1.474   7.410 -0.0593 -0.2340 -0.2686
    1ION     NA 1814   2.983   2.095   6.852  0.0162  0.0894  0.2461
    1ION     NA 1815   2.815   0.377   0.730 -0.1855  0.0808  0.2136
    1ION     NA 1816   0.199   0.257   6.221  0.2727  0.0128  0.1064
    1ION     NA 1817   1.577   0.415   7.282  0.0521  0.2888 -0.2530
    1ION     NA 1818   1.796   3.510   7.435 -0.0570  0.1084  0.1353
    1ION     NA 1819   0.175   2.293   6.387 -0.1733 -0.0257 -0.3430
    1ION     NA 1820   2.575   1.506   7.387 -0.0185 -0.4289 -0.1718
    1ION     NA 1821   2.843   0.941   7.481 -0.1256 -0.0165  0.1016
    1ION     NA 1822   2.647   2.343   1.353  0.2927  0.0470 -0.2775
    1ION     NA 1823   0.633   3.559   0.898 -0.1441  0.0191  0.6496
    1ION     NA 1824   3.531   2.587   7.073 -0.5128 -0.2005 -0.3239
    1ION     NA 1825   2.461   0.297   6.699 -0.1814  0.4216 -0.1136
    1ION     NA 1826   0.171   3.407   0.201 -0.0565 -0.2172  0.2925
    1ION     NA 1827   2.570   3.447   7.255 -0.1834  0.7493 -0.3637
    1ION     NA 1828   1.732   1.593   1.083 -0.1739  0.2985  0.3660
    1ION     NA 1829   1.753   2.538   0.178  0.3828  0.0280 -0.2562
    1ION     NA 1830   0.572   2.646   1.592  0.3056 -0.0095 -0.1522
    1ION     NA 1831   0.525   2.963   1.389  0.0823 -0.1790  0.1271
    1ION     NA 1832   0.026   3.907   6.349  0.3912  0.0881  0.1514
    1ION     NA 1833   1.889   2.725   7.598  0.0025  0.0535  0.1366
    1ION     NA 1834   1.230   1.706   1.443 -0.0881  0.3927 -0.0227
    1ION     NA 1835   4.017   1.920   7.099  0.3099  0.0730  0.0940
    1ION     NA 1836   3.998   3.963   1.694 -0.0271  0.0744  0.3569
    1ION     NA 1837   1.649   2.450   0.930  0.0337 -0.3258  0.4624
    1ION     NA 1838   1.252   2.506   6.729 -0.3915  0.6624 -0.3112
    1ION     NA 1839   2.068   3.979   1.399  0.0987  0.6217 -0.3664
    1ION     NA 1840   1.522   3.323   0.077  0.0429 -0.0830  0.3522
    1ION     NA 1841   2.276   3.226   0.884 -0.0202 -0.1965  0.2372
    1ION     NA 1842   4.056   2.142   7.877  0.1052  0.0324  0.0346
    1ION     NA 1843   2.470   2.563   0.127  0.7666  0.3354 -0.0547
    1ION     NA 1844   2.465   1.226   1.140  0.1275  0.0239 -0.1254
    1ION     NA 1845   3.304   4.011   1.406 -0.0181 -0.0862 -0.1957
    1ION     NA 1846   0.382   0.338   1.504 -0.1108  0.5795 -0.1169
    1ION     NA 1847   0.563   1.993   8.058  0.2621 -0.0706  0.1183
    1ION     NA 1848   3.470   0.936   1.417  0.2173  0.1802  0.0781
    1ION     NA 1849   1.764   2.097   6.749 -0.0788 -0.3453  0.0335
    1ION     NA 1850   1.681   4.069   0.665 -0.1444 -0.0888  0.0299
    1ION     NA 1851   3.535   2.074   0.818 -0.1900 -0.0185 -0.1224
    1ION     NA 1852   3.077   3.078   7.085 -0.0660  0.6999  0.0714
    1ION     NA 1853   0.701   1.317   7.704  0.2866  0.2334 -0.3296
    1ION     NA 1854   0.400   3.856   7.606  0.0730  0.1971  0.1161
   4.27701   4.27701   8.08610
