[ moleculetype ]
GIA1  1
[ atoms ]
; nr type resnr residue atom cgnr charge mass
;sugars
   1    SN6        1    GIA1    A          1       0      54
   2    SP4r       1    GIA1    B          2       0      54
   3    SP1r       1    GIA1    C          3       0      54
   4    SN6        1    GIA1    Aa         4       0      66
   5    SP1r       1    GIA1    Bb         5       0      66
   6    TN4ar      1    GIA1    Cc         6       0      66
   7    SQ5n       1    GIA1    Dd         7      -1       0
   8    SN6        1    GIA1    Aaa        8       0      54
   9    SP1r       1    GIA1    Bbb        9       0      54
  10    SP4r       1    GIA1    Ccc       10       0      54
  11    TC4        1    GIA1    VS1       11       0       0
  12    TC4        1    GIA1    VS2       12       0       0
  13    TC4        1    GIA1    VS3       13       0       0 
;Linker region
  14    Q5         1    GIA1    PO4       14      -1      72
  15    SP2        1    GIA1    NOH       15       0      54 ;NH-OH
  16    P4         1    GIA1    GLA       16       0      72 ;2xOH long tail attached
  17    SP1        1    GIA1    GLB       17       0      54 ;1xOH This might need to be split into two, depending on insertation depth 18 tail attached
;tail part
;18:1
  18    C1         1    GIA1    C1A       18       0      72
  19    C1         1    GIA1    C2A       19       0      72
  20    C1         1    GIA1    C3A       20       0      72
;24:0 stolen from DEV18
  21    C1         1    GIA1    C1B       21       0      72
  22    C1         1    GIA1    C2B       22       0      72
  23    C4h        1    GIA1    D3B       23       0      72
  24    C1         1    GIA1    C4B       24       0      72
  25    C1         1    GIA1    C5B       25       0      72

[ constraints ]
; i  j  funct length
;constraints are scaled 15 % according to the Martini 3 sugar paper:
;https://doi.org/10.1021/acs.jctc.2c00757 
;Martini 3 Coarse-Grained Force Field for Carbohydrates
   1       2       1    0.380         ;A-B
   1       3       1    0.470         ;A-C
   2       3       1    0.396         ;B-C
   4       5       1    0.35430       ;Aa-Bb
   4       6       1    0.34347       ;Aa-Cc
   5       6       1    0.34612       ;Bb-Cc
   8       9       1    0.369         ;Bbb-Aaa
   9      10       1    0.386         ;Bbb-Ccc
   8      10       1    0.375         ;Aaa-Ccc
[ bonds ]
   1       5       1    0.357   6500  ;A-Bb
   4       9       1    0.375   6500  ;Aa-Bbb
;Linker region 
   8      14       1    0.37    5000  ;Aaa-PO4
   14     15       1    0.47    5000  ;PO4-NOH
   15     16       1    0.30    9000  ;NOH-GLA
   15     17       1    0.30    8000  ;NOH-GLB
;tail part
   16     18       b_GL_C4_glyc_5long ;GLA-D1A NB!  Building block assumption
   18     19       b_C1_C1_mid        ;C1A-C2A
   19     20       b_C1_C1_mid        ;C2A-C3A
   17     21       1    0.50    5000  ;GLB-C1B
   21     22       b_C1_C1_mid        ;C1B-C2B
   22     23       b_C1_C4_mid        ;C2B-D3B
   23     24       b_C4_C1_mid        ;D3B-C4B
   24     25       b_C1_C1_mid        ;C4B-C5B

[ angles ]
; All angles stable and good. 
;  i  j  k   funct   angle   force.c.
   2       1       5      10     110      50  ;B-A-Bb     stab dihed
   5       4       9      10     100      75  ;Bb-Aa-Bbb  stab dihed. +10 deg for stab.
   8       9       4      10      75      75  ;Aaa-Bbb-Aa stab dihed
   6       4       9       1      50     150  ;Cc-Aa-Bbb  stab dihed
   8       9       4       2      75      45  ;Aaa-Bbb-Aa 
   1       4       8       2     119      50  ;A-Aa-Aaa
   3       5       4      10     130     110  ;C-Bb-Aa
;;Linker
   9       8      14       2      83     150  ;Bbb-Aaa-PO4  fc before 250
   8      14      15       2      85     100  ;Aaa-PO4-NOH 
  10       8      14       2     140     150  ;Ccc-Aaa-PO4
;;PO4-NOH-GLA Cant get them from the two fragments
;;PO4-NOH-GLB Cant get them from the two fragments
;;Tail 
  15      16      18        2    155      45  ;NOH-GLA-C1A 
  15      17      20        2    110      45  ;NOH-GLB-C1B 
  16      18      19        a_GL_C4_C1_glyc   ;GLA-D1A-C2A NB! here we use building block approach and assume its fine
  17      21      22        2    160      75  ;GLB-C1B-C2B from CER6  
  21      17      15        2    100      55  ;C1B-GLB-NOH  
;  18      16      15        2    155      35  ;C1A-GLA-NOH

;;tails taken from DEV18
 18      19      20   a_C1_C1_C1_cbt         ;C1A-C2A-C3A
 21      22      23   a_C1_C1_C4_cbt         ;C1B-C2B-D3B
 22      23      24   a_C1_C4_C1_cbt         ;C2B-D3B-C4B
 23      24      25   a_C4_C1_C1_cbt         ;D3B-C4B-C5B

 

[ dihedrals ]
;;sugar and linker

3  2  1  5    2    -40    30      ;C-B-A-Bb
6  5  4  9    2    -25    100     ;Cc-Bb-Aa-Bbb 
10 8  9  4    2    110    50      ;Ccc-Aaa-Bbb-Aa
10 9  8 14    2    180    50      ;Ccc-Bbb-Aaa-PO4
1  3  5  4    2    180    30      ;A-C-Bb-Aa
6  4  9  8    2    169     5      ;Cc-Aa-Bbb-Aaa
9  8  14 15   2   -130    10      ;Bbb-Aaa-PO4-NOH 

[ exclusions ]
13  8 9 10       ;VS3 Aaa Bbb Ccc
11  1 2 3        ;VS1 A B C 
12  4 5 6 7      ;VS2 Aa Bb Cc Dd 
7   5 6 4        ;Dd Aa Bb Cc
6 9  ;Cc-Bbb
4 8  ;Aa-Aaa
9 14 ;Bbb-PO4


[ virtual_sitesn ]
11 1 1 2 3    ;VS1  A B C
12 1 4 5 6    ;VS2  Aa Bb Cc
13 1 8 9 10   ;VS3  Aaa Bbb Ccc

[ virtual_sites3 ]
7  4 5 6 4  0.06869  1.50235  -0.99167 ;Dd - Aa-Bb-Cc and off-plane virtual site
