[ moleculetype ]
GIB1  1
[ atoms ]
; nr type resnr residue atom cgnr charge mass
;sugars
   1    Q5         0    GIB1    PO4        1      -1      
   2    SN6        0    GIB1     A0        2       0      
   3    SP1r       0    GIB1     B0        3       0      
   4    SP4r       0    GIB1     C0        4       0      
   5    TC4        0    GIB1    VS0        5       0    0  
   6    SN6        0    GIB1     A1        6       0      
   7    SP1r       0    GIB1     B1        7       0      
   8    TN4ar      0    GIB1     C1        8       0      
   9    SQ5n       0    GIB1     D1        9      -1    0  
  10    TC4        0    GIB1    VS1       10       0    0  
  11    SN6        0    GIB1     A2       11       0      
  12    SP1r       0    GIB1     B2       12       0      
  13    SP1r       0    GIB1     C2       13       0      
  14    TC4        0    GIB1    VS2       14       0    0  
  15    SN6        0    GIB1     A3       15       0      
  16    SP4r       0    GIB1     B3       16       0      
  17    SP1r       0    GIB1     C3       17       0      
  18    TC4        0    GIB1    VS3       18       0    0   
;Linker region
  19    SP2        1    GIB1   NOH       19       0      54 ;NH-OH
  20    P4         1    GIB1   GLA       20       0      72 ;2xOH long tail attached
  21    SP1        1    GIB1   GLB       21       0      54 ;1xOH This might need to be split into two, depending on insertation depth 18 tail attached
;tail part
;18:1
  22    C1         1    GIB1   C1A       22       0      72
  23    C1         1    GIB1   C2A       23       0      72
  24    C1         1    GIB1   C3A       24       0      72
;24:0 stolen from DEV18
  25    C1         1    GIB1   C1B       25       0      72
  26    C1         1    GIB1   C2B       26       0      72
  27    C4h        1    GIB1   D3B       27       0      72
  28    C1         1    GIB1   C4B       28       0      72
  29    C1         1    GIB1   C5B       29       0      72

[ constraints ]
; i  j  funct length
;sugar
;scaled 15% as per the carbohydrate paper
   2       3       1    0.38    5000  ;A0-B0
   2       4       1    0.36    5000  ;A0-C0
   3       4       1    0.36    5000  ;B0-C0
   6       7       1    0.31    5000  ;A1-B1
   6       8       1    0.33    5000  ;A1-C1
   7       8       1    0.3     5000  ;B1-C1
  11      12       1    0.33    5000  ;A2-B2
  11      13       1    0.49    5000  ;A2-C2
  12      13       1    0.43    5000  ;B2-C2
;sugar links
  15      16       1    0.29    5000  ;A3-B3
  15      17       1    0.41    5000  ;A3-C3
  16      17       1    0.33    5000  ;B3-C3

[ bonds ]
;sugar
   1       2       1    0.33    6500  ;PO4-A0
   3       6       1    0.41    5000  ;B0-A1
   7      11       1    0.315   5000  ;B1-A2
  12      15       1    0.35    5000  ;B2-A3
;Linker region 
   2      19       1    0.47    5000  ;PO4-NOH
   19     20       1    0.30    9000  ;NOH-GLA
   19     21       1    0.30    8000  ;NOH-GLB
;tail part
   20     22       b_GL_C1_glyc_5long ;GLA-C1A NB!  Building block assumption
   22     23       b_C1_C1_mid        ;C1A-C2A
   23     24       b_C1_C1_mid        ;C2A-C3A
   21     25       1    0.50    5000  ;GLB-C1B
   25     26       b_C1_C1_mid        ;C1B-C2B
   26     27       b_C1_C4_mid        ;C2B-D3B
   27     28       b_C4_C1_mid        ;D3B-C4B
   28     29       b_C1_C1_mid        ;C4B-C5B

[ angles ]
; All angles stable and good. 
;  i  j  k   funct   angle   force.c.
   1       2       3      10      80      75  ;PO4-A0-B0  ;;most of these dont NEED type 10, but its there for extra stab.
   2       3       6      10      78      75  ;A0-B0-A1
   3       6       8      10      48      75  ;B0-A1-C1
   6       7      11       1     170      75  ;A1-B1-A2   ;;stability risk
   7      11      13      10      90      75  ;B1-A2-C2
  11      12      15       1     172      75  ;A2-B2-A3   ;;stability risk
  12      15      17      10      84      75  ;B2-A3-C3
   1       5      10       1      82     175  ;PO4-VS0-VS1
   5      10      14      10     124     300  ;VS0-VS1-VS2
  10      14      18      10     132     300  ;VS1-VS2-VS3
;;Linker. From GIB1
   4       2       1       2     140     150  ;C0-A0-PO4 ;;check this
   2       1      19      10      85     100  ;Aaa-PO4-NOH 
;PO4-NOH-GLA and PO4-NOH-GLB could likely improve model.
;;Tail 
  19      20      22        2    155      45  ;NOH-GLA-D1A 
  19      21      25        2    110      45  ;NOH-GLB-C1B 
  20      22      23        a_GL_C1_C1_glyc   ;GLA-C1A-C2A NB! here we use building block approach and assume its fine
  21      25      26        2    160      75  ;GLB-C1B-C2B from CER6  
  25      21      19        2    100      55  ;C1B-GLB-NOH  
;  22      20      19        2    155      35  ;C1A-GLA-NOH
;;tails taken from DEV18
 22      23      24   a_C1_C1_C1_cbt         ;C1A-C2A-C3A
 25      26      27   a_C1_C1_C4_cbt         ;C1B-C2B-D3B
 25      27      28   a_C1_C4_C1_cbt         ;C2B-D3B-C4B
 27      28      29   a_C4_C1_C1_cbt         ;D3B-C4B-C5B

[ dihedrals ]
;sugar 
 1  2  3  4  2  180  40 ;PO4-A0-B0-C0
 4  2  3  6  2  102  20 ;C0-A0-B0-A1
 3  6  8  7  2  134  30 ;B0-A1-C1-B1
 7 11 13 12  2  138  35 ;B1-A2-C2-B2
12 15 17 16  2  124  50 ;B2-A3-C3-B3
;PO4-VS0-VS1-VS2 seems to be very unstable when added sadly.
;linker
3  2  1 19   2   -130    10      ;Bbb Aaa PO4 NOH 

[ exclusions ]
 5 4 3 2    
10 8 7 6    
14 13 12 11   
18 17 16 15
9 7 8 6

[ virtual_sitesn ]
5 1 4 3 2    
10 1 8 7 6    
14 1 13 12 11   
18 1 17 16 15

[ virtual_sites3 ]
9    6 7 8    4  0.11249  1.50560  -2.09895 ;Dd - ABC and off-plane virtual site
