Written by MDAnalysis
   80
   73CER6    O1    1   3.187   0.852   4.999
   73CER6   HO1    2   3.252   0.788   4.972
   73CER6   C1S    3   3.243   0.973   4.958
   73CER6   H1S    4   3.349   0.956   4.927
   73CER6   H1T    5   3.178   1.013   4.878
   73CER6    NF    6   3.284   1.211   5.071
   73CER6   HNF    7   3.251   1.276   5.138
   73CER6   C2S    8   3.245   1.071   5.083
   73CER6   H2S    9   3.329   1.044   5.150
   73CER6   C3S   10   3.125   1.058   5.180
   73CER6   H3S   11   3.132   1.129   5.265
   73CER6    O3   12   3.134   0.942   5.262
   73CER6   HO3   13   3.196   0.890   5.211
   73CER6   C4S   14   2.979   1.078   5.126
   73CER6   H4S   15   2.914   1.091   5.216
   73CER6    O4   16   2.930   0.958   5.065
   73CER6   HO4   17   3.001   0.893   5.063
   73CER6   C5S   18   2.956   1.203   5.034
   73CER6   H5S   19   2.952   1.297   5.093
   73CER6   H5T   20   3.044   1.216   4.967
   73CER6   C6S   21   2.822   1.179   4.953
   73CER6   H6S   22   2.836   1.104   4.872
   73CER6   H6T   23   2.749   1.141   5.028
   73CER6   C7S   24   2.756   1.311   4.906
   73CER6   H7S   25   2.774   1.393   4.979
   73CER6   H7T   26   2.821   1.334   4.819
   73CER6   C8S   27   2.603   1.313   4.869
   73CER6   H8S   28   2.592   1.216   4.816
   73CER6   H8T   29   2.554   1.316   4.968
   73CER6   C9S   30   2.559   1.440   4.788
   73CER6   H9S   31   2.639   1.464   4.714
   73CER6   H9T   32   2.466   1.415   4.732
   73CER6  C10S   33   2.545   1.558   4.881
   73CER6  H10S   34   2.472   1.533   4.960
   73CER6  H10T   35   2.642   1.585   4.929
   73CER6  C11S   36   2.482   1.680   4.819
   73CER6  H11S   37   2.404   1.655   4.743
   73CER6  H11T   38   2.444   1.734   4.908
   73CER6  C12S   39   2.576   1.773   4.749
   73CER6  H12S   40   2.663   1.791   4.815
   73CER6  H12T   41   2.606   1.720   4.655
   73CER6  C13S   42   2.510   1.905   4.721
   73CER6  H13S   43   2.476   1.946   4.819
   73CER6  H13T   44   2.582   1.984   4.690
   73CER6   C1F   45   3.392   1.253   4.997
   73CER6    OF   46   3.427   1.178   4.909
   73CER6   C2F   47   3.458   1.392   5.019
   73CER6   H2F   48   3.417   1.431   5.115
   73CER6    O2   49   3.602   1.396   5.042
   73CER6   HO2   50   3.610   1.481   5.088
   73CER6   C3F   51   3.427   1.480   4.900
   73CER6   H3F   52   3.498   1.448   4.821
   73CER6   H3G   53   3.469   1.580   4.923
   73CER6   C5F   54   3.266   1.591   4.727
   73CER6   H5F   55   3.164   1.573   4.688
   73CER6   H5G   56   3.347   1.569   4.654
   73CER6   C6F   57   3.266   1.731   4.775
   73CER6   H6F   58   3.369   1.771   4.788
   73CER6   H6G   59   3.219   1.723   4.876
   73CER6   C7F   60   3.197   1.828   4.681
   73CER6   H7F   61   3.250   1.819   4.584
   73CER6   H7G   62   3.221   1.928   4.724
   73CER6   C8F   63   3.047   1.810   4.653
   73CER6   H8F   64   2.999   1.829   4.752
   73CER6   H8G   65   3.029   1.709   4.611
   73CER6   C9F   66   3.002   1.910   4.542
   73CER6   H9F   67   3.068   1.901   4.453
   73CER6   H9G   68   3.003   2.016   4.577
   73CER6  C10F   69   2.866   1.865   4.494
   73CER6  H10F   70   2.791   1.903   4.567
   73CER6  H10G   71   2.865   1.754   4.493
   73CER6  C11F   72   2.843   1.900   4.350
   73CER6  H11F   73   2.917   1.840   4.292
   73CER6  H11G   74   2.858   2.008   4.327
   73CER6  C12F   75   2.703   1.861   4.297
   73CER6  H12F   76   2.633   1.930   4.349
   73CER6  H12G   77   2.672   1.761   4.332
   73CER6  C13F   78   2.691   1.863   4.144
   73CER6  H13F   79   2.763   1.793   4.097
   73CER6  H13G   80   2.735   1.962   4.121
   5.08192   5.08192   7.85499
