Written by MDAnalysis
    8
   73CER6   NOH    1   2.790   2.318   2.675
   73CER6    OH    2   2.693   2.004   2.593
   73CER6   GLA    3   2.948   2.546   2.633
   73CER6   GLB    4   2.550   2.103   2.808
   73CER6   C1A    5   2.614   2.869   2.318
   73CER6   C2A    6   2.229   2.958   1.968
   73CER6   C1B    7   2.193   2.377   2.549
   73CER6   C2B    8   1.985   2.827   2.453
   5.00000   5.00000   5.00000
