frame t= 0.000
   64
   73CER6   NOH    1   0.327   3.578   5.697
   73CER6   OH    2   0.044   3.813   5.741
   73CER6   GLA    3   0.367   3.310   5.718
   73CER6   GLB    4   0.278   3.829   5.576
   73CER6   C1A    5   0.287   4.110   5.201
   73CER6   C2A    6   0.168   4.484   4.768
   73CER6   C1B    7   0.570   3.159   5.171
   73CER6   C2B    8   0.983   3.177   4.823
   74CER6   NOH    9   0.341   2.590   5.896
   74CER6   OH   10   0.477   2.228   5.859
   74CER6   GLA   11   0.410   2.844   5.858
   74CER6   GLB   12   0.315   2.387   5.721
   74CER6   C1A   13   0.259   2.424   5.250
   74CER6   C2A   14   2.451   2.367   4.772
   74CER6   C1B   15   0.201   2.886   5.276
   74CER6   C2B   16   3.692   2.981   4.770
   75CER6   NOH   17   2.532   4.058   5.151
   75CER6   OH   18   2.507   3.704   5.209
   75CER6   GLA   19   2.705   4.251   5.190
   75CER6   GLB   20   2.353   3.875   5.037
   75CER6   C1A   21   1.976   3.899   4.705
   75CER6   C2A   22   1.852   4.223   4.361
   75CER6   C1B   23   2.722   4.458   4.691
   75CER6   C2B   24   2.995   4.521   4.224
   76CER6   NOH   25   1.214   1.892   5.431
   76CER6   OH   26   1.090   1.544   5.535
   76CER6   GLA   27   1.416   2.043   5.449
   76CER6   GLB   28   1.002   1.730   5.324
   76CER6   C1A   29   0.818   1.717   4.903
   76CER6   C2A   30   0.686   1.633   4.470
   76CER6   C1B   31   1.628   1.825   4.925
   76CER6   C2B   32   1.628   1.822   4.357
   77CER6   NOH   33   0.429   2.457   2.261
   77CER6   OH   34   0.749   2.585   2.139
   77CER6   GLA   35   0.312   2.231   2.316
   77CER6   GLB   36   0.552   2.712   2.309
   77CER6   C1A   37   0.617   2.966   2.687
   77CER6   C2A   38   0.726   3.180   3.211
   77CER6   C1B   39   0.409   2.285   2.925
   77CER6   C2B   40   0.537   2.366   3.482
   78CER6   NOH   41   1.785   4.703   2.391
   78CER6   OH   42   2.042   4.426   2.396
   78CER6   GLA   43   1.523   4.759   2.405
   78CER6   GLB   44   1.988   4.626   2.572
   78CER6   C1A   45   1.911   4.818   2.984
   78CER6   C2A   46   1.745   1.286   3.422
   78CER6   C1B   47   1.461   2.027   2.954
   78CER6   C2B   48   1.272   2.510   3.444
   79CER6   NOH   49   2.700   3.759   2.550
   79CER6   OH   50   2.447   3.750   2.279
   79CER6   GLA   51   2.889   3.894   2.615
   79CER6   GLB   52   2.466   3.597   2.530
   79CER6   C1A   53   2.297   3.330   2.870
   79CER6   C2A   54   2.037   3.451   3.303
   79CER6   C1B   55   2.646   4.221   3.010
   79CER6   C2B   56   2.649   4.516   3.467
   80CER6   NOH   57   2.308   0.553   2.441
   80CER6   OH   58   2.197   0.926   2.399
   80CER6   GLA   59   2.532   0.416   2.413
   80CER6   GLB   60   2.183   0.749   2.588
   80CER6   C1A   61   2.216   0.805   3.080
   80CER6   C2A   62   2.443   0.971   3.530
   80CER6   C1B   63   2.792   0.727   2.807
   80CER6   C2B   64   2.934   0.976   3.277
   4.98091   4.98091   8.17069
