one molecule in water
 1201
    1CER6   NOH    1   2.836   2.028   2.624
    1CER6    OH    2   2.716   1.761   2.396
    1CER6   GLA    3   2.978   2.277   2.538
    1CER6   GLB    4   2.617   1.829   2.663
    1CER6   C1A    5   2.540   2.620   2.311
    1CER6   C2A    6   2.096   2.804   2.080
    1CER6   C1B    7   2.239   2.097   2.637
    1CER6   C2B    8   2.151   2.631   2.643
    2W        W    9   1.441   0.846   3.063
    3W        W   10   2.350   4.311   0.817
    4W        W   11   4.955   4.351   2.725
    5W        W   12   3.905   4.500   0.026
    6W        W   13   3.619   3.882   0.292
    7W        W   14   2.990   2.670   2.881
    8W        W   15   1.638   3.682   1.233
    9W        W   16   3.321   0.416   2.724
   10W        W   17   2.912   2.448   2.046
   11W        W   18   0.556   3.537   2.236
   12W        W   19   0.062   0.435   2.126
   13W        W   20   3.156   1.351   0.022
   14W        W   21   2.780   2.682   0.060
   15W        W   22   3.222   4.131   1.309
   16W        W   23   2.417   4.445   2.004
   17W        W   24   4.568   1.048   0.014
   18W        W   25   1.095   4.854   0.717
   19W        W   26   1.155   3.339   3.293
   20W        W   27   3.188   1.718   0.951
   21W        W   28   3.393   1.354   3.262
   22W        W   29   0.103   2.439   0.165
   23W        W   30   4.695   2.660   1.723
   24W        W   31   3.854   0.333   3.916
   25W        W   32   2.279   2.134   3.526
   26W        W   33   0.786   2.573   1.385
   27W        W   34   4.154   0.403   4.679
   28W        W   35   4.762   1.506   0.144
   29W        W   36   3.826   4.672   1.288
   30W        W   37   3.386   2.653   1.934
   31W        W   38   2.354   3.850   4.003
   32W        W   39   2.941   3.002   1.232
   33W        W   40   4.253   0.758   1.741
   34W        W   41   1.313   1.501   0.771
   35W        W   42   0.376   0.751   3.941
   36W        W   43   4.617   2.558   3.793
   37W        W   44   3.707   2.494   4.088
   38W        W   45   0.285   0.537   4.386
   39W        W   46   3.871   2.810   1.891
   40W        W   47   2.345   3.653   1.389
   41W        W   48   2.669   4.459   2.827
   42W        W   49   1.621   1.899   0.636
   43W        W   50   2.662   2.980   0.482
   44W        W   51   1.278   0.821   4.275
   45W        W   52   3.724   4.951   2.633
   46W        W   53   1.389   4.493   2.676
   47W        W   54   1.353   0.062   3.240
   48W        W   55   2.811   1.680   0.126
   49W        W   56   3.576   0.708   0.726
   50W        W   57   1.960   0.562   2.532
   51W        W   58   3.911   3.291   0.448
   52W        W   59   2.606   4.979   0.582
   53W        W   60   4.477   4.230   2.694
   54W        W   61   0.706   4.871   1.087
   55W        W   62   3.779   2.887   0.878
   56W        W   63   1.734   2.224   2.570
   57W        W   64   2.730   4.210   2.317
   58W        W   65   4.703   0.416   3.365
   59W        W   66   1.583   4.410   4.677
   60W        W   67   2.276   1.537   3.769
   61W        W   68   4.920   0.796   1.786
   62W        W   69   3.174   0.392   0.967
   63W        W   70   2.792   1.432   4.637
   64W        W   71   3.654   4.512   2.332
   65W        W   72   0.707   3.676   2.694
   66W        W   73   1.964   4.484   1.104
   67W        W   74   3.919   1.030   0.520
   68W        W   75   0.704   0.275   1.429
   69W        W   76   3.082   1.702   1.755
   70W        W   77   3.708   0.316   4.913
   71W        W   78   2.439   0.830   2.518
   72W        W   79   4.273   0.047   3.776
   73W        W   80   4.645   2.718   0.175
   74W        W   81   3.122   4.235   0.477
   75W        W   82   3.786   4.313   3.257
   76W        W   83   1.508   3.359   2.506
   77W        W   84   2.080   3.906   2.611
   78W        W   85   1.526   0.365   0.280
   79W        W   86   1.174   2.460   2.186
   80W        W   87   1.977   0.135   0.188
   81W        W   88   1.335   1.040   2.334
   82W        W   89   3.581   4.034   2.573
   83W        W   90   4.058   2.836   3.907
   84W        W   91   2.771   4.100   3.818
   85W        W   92   1.571   2.823   0.512
   86W        W   93   1.523   2.156   0.165
   87W        W   94   0.334   3.815   4.344
   88W        W   95   3.357   2.841   4.173
   89W        W   96   2.796   2.697   3.768
   90W        W   97   4.954   0.747   3.669
   91W        W   98   1.792   4.118   0.072
   92W        W   99   1.849   1.586   4.583
   93W        W  100   3.432   1.083   0.371
   94W        W  101   3.297   0.063   0.105
   95W        W  102   3.987   3.698   2.612
   96W        W  103   2.739   3.403   2.229
   97W        W  104   4.280   1.364   4.606
   98W        W  105   2.019   2.966   1.607
   99W        W  106   0.603   3.113   0.496
  100W        W  107   0.381   1.313   2.613
  101W        W  108   2.799   0.731   3.415
  102W        W  109   2.524   2.901   0.968
  103W        W  110   4.254   3.399   3.257
  104W        W  111   0.172   3.644   1.083
  105W        W  112   3.267   2.131   0.344
  106W        W  113   4.453   4.995   1.953
  107W        W  114   0.206   4.396   0.125
  108W        W  115   4.232   0.464   3.183
  109W        W  116   4.299   3.357   2.228
  110W        W  117   0.625   2.583   3.723
  111W        W  118   3.834   1.483   1.389
  112W        W  119   4.943   0.284   0.642
  113W        W  120   3.860   1.272   2.856
  114W        W  121   4.959   3.772   3.411
  115W        W  122   4.901   1.016   1.228
  116W        W  123   4.094   4.590   2.632
  117W        W  124   4.443   2.456   4.562
  118W        W  125   3.779   4.933   0.266
  119W        W  126   2.434   0.401   1.779
  120W        W  127   1.605   1.103   3.966
  121W        W  128   4.113   1.797   0.669
  122W        W  129   4.148   4.613   4.029
  123W        W  130   3.692   4.196   1.486
  124W        W  131   2.078   2.333   2.220
  125W        W  132   4.475   0.877   3.400
  126W        W  133   1.382   2.183   3.111
  127W        W  134   0.212   2.207   2.305
  128W        W  135   0.805   4.508   2.153
  129W        W  136   0.427   0.756   1.934
  130W        W  137   4.234   0.528   3.670
  131W        W  138   3.544   3.181   2.015
  132W        W  139   0.638   1.751   2.501
  133W        W  140   4.121   4.231   1.777
  134W        W  141   2.232   3.675   3.082
  135W        W  142   2.681   1.732   3.468
  136W        W  143   3.094   0.092   0.579
  137W        W  144   2.481   4.623   1.543
  138W        W  145   2.358   2.635   1.394
  139W        W  146   0.458   2.268   3.281
  140W        W  147   1.178   4.073   2.850
  141W        W  148   4.469   3.721   3.622
  142W        W  149   3.382   3.508   3.698
  143W        W  150   4.106   4.106   0.254
  144W        W  151   3.796   2.138   2.026
  145W        W  152   1.899   1.987   4.269
  146W        W  153   2.260   0.008   3.993
  147W        W  154   2.233   4.657   4.352
  148W        W  155   2.721   1.311   2.661
  149W        W  156   0.610   1.333   3.346
  150W        W  157   2.061   1.672   0.554
  151W        W  158   4.048   4.136   2.347
  152W        W  159   1.620   1.760   3.325
  153W        W  160   1.464   0.819   4.763
  154W        W  161   3.571   1.710   4.584
  155W        W  162   4.985   2.351   1.471
  156W        W  163   2.368   2.490   3.915
  157W        W  164   0.887   2.894   3.354
  158W        W  165   0.189   1.194   0.834
  159W        W  166   1.403   2.454   3.624
  160W        W  167   3.655   2.538   0.124
  161W        W  168   3.653   0.434   1.152
  162W        W  169   1.131   0.111   1.649
  163W        W  170   4.689   1.901   1.285
  164W        W  171   4.847   2.120   2.674
  165W        W  172   1.021   1.467   3.600
  166W        W  173   2.005   2.857   1.082
  167W        W  174   1.743   4.820   4.408
  168W        W  175   2.750   0.463   0.698
  169W        W  176   1.999   2.138   0.350
  170W        W  177   4.845   2.125   4.555
  171W        W  178   4.375   3.509   0.386
  172W        W  179   2.751   2.169   3.742
  173W        W  180   2.528   1.106   2.112
  174W        W  181   0.475   4.915   3.734
  175W        W  182   4.109   3.277   4.719
  176W        W  183   0.863   1.852   0.386
  177W        W  184   2.012   3.335   1.225
  178W        W  185   1.726   0.893   3.503
  179W        W  186   2.180   2.490   3.147
  180W        W  187   4.166   2.134   4.856
  181W        W  188   3.582   2.633   4.621
  182W        W  189   1.886   1.497   4.089
  183W        W  190   0.681   4.589   3.394
  184W        W  191   2.980   3.622   2.625
  185W        W  192   4.490   2.863   4.178
  186W        W  193   4.546   3.453   1.766
  187W        W  194   3.430   0.004   3.053
  188W        W  195   4.534   4.805   2.809
  189W        W  196   3.317   2.031   2.748
  190W        W  197   0.914   4.175   4.674
  191W        W  198   1.110   0.426   4.007
  192W        W  199   1.748   4.631   2.351
  193W        W  200   2.556   3.663   3.573
  194W        W  201   2.537   0.732   0.058
  195W        W  202   0.930   1.529   4.997
  196W        W  203   0.714   4.770   1.586
  197W        W  204   0.584   2.009   2.033
  198W        W  205   2.096   0.494   3.865
  199W        W  206   0.194   3.528   2.623
  200W        W  207   2.492   1.017   4.639
  201W        W  208   4.912   3.001   4.420
  202W        W  209   0.183   1.260   3.086
  203W        W  210   4.772   0.432   4.372
  204W        W  211   2.971   1.280   0.474
  205W        W  212   1.544   2.869   4.512
  206W        W  213   1.586   4.915   4.906
  207W        W  214   0.373   0.141   1.800
  208W        W  215   4.919   4.839   1.938
  209W        W  216   4.916   3.111   1.818
  210W        W  217   2.152   2.880   0.603
  211W        W  218   4.662   1.766   0.612
  212W        W  219   4.332   0.240   1.538
  213W        W  220   0.571   3.582   3.538
  214W        W  221   3.507   0.343   1.936
  215W        W  222   2.353   2.421   0.932
  216W        W  223   1.516   3.941   1.957
  217W        W  224   1.477   0.340   4.365
  218W        W  225   1.324   3.939   4.470
  219W        W  226   4.384   1.681   3.989
  220W        W  227   0.128   4.189   3.180
  221W        W  228   4.499   2.031   3.127
  222W        W  229   0.050   3.606   1.600
  223W        W  230   1.567   0.877   1.472
  224W        W  231   3.327   0.046   2.349
  225W        W  232   1.526   3.671   4.906
  226W        W  233   0.612   3.245   1.003
  227W        W  234   2.041   3.018   3.032
  228W        W  235   2.296   3.321   0.787
  229W        W  236   4.611   0.639   1.418
  230W        W  237   0.528   3.601   4.760
  231W        W  238   0.864   3.802   3.156
  232W        W  239   4.938   2.585   2.501
  233W        W  240   2.086   4.896   4.764
  234W        W  241   1.492   4.518   0.205
  235W        W  242   1.277   0.801   1.883
  236W        W  243   0.677   3.811   1.015
  237W        W  244   3.581   1.608   2.620
  238W        W  245   4.682   4.438   0.665
  239W        W  246   1.946   4.996   1.061
  240W        W  247   3.803   0.082   1.604
  241W        W  248   0.517   1.764   4.288
  242W        W  249   1.946   0.375   0.635
  243W        W  250   0.518   3.089   3.632
  244W        W  251   4.747   3.888   1.901
  245W        W  252   0.050   4.855   0.370
  246W        W  253   2.377   3.754   2.216
  247W        W  254   2.885   0.028   4.790
  248W        W  255   0.701   3.158   4.945
  249W        W  256   1.537   3.521   3.602
  250W        W  257   3.296   1.302   4.554
  251W        W  258   3.291   4.439   0.910
  252W        W  259   4.060   0.344   1.981
  253W        W  260   2.881   2.896   3.325
  254W        W  261   3.532   4.489   2.833
  255W        W  262   2.636   4.852   3.160
  256W        W  263   1.849   3.650   2.222
  257W        W  264   4.775   1.685   4.329
  258W        W  265   0.662   4.517   4.968
  259W        W  266   1.564   3.463   4.434
  260W        W  267   2.380   0.339   2.339
  261W        W  268   4.586   4.657   3.646
  262W        W  269   4.584   1.135   1.631
  263W        W  270   0.209   1.685   2.234
  264W        W  271   0.896   4.669   2.636
  265W        W  272   1.883   2.465   0.733
  266W        W  273   1.969   4.170   3.760
  267W        W  274   1.398   2.360   0.612
  268W        W  275   0.581   1.575   3.817
  269W        W  276   2.795   0.494   2.636
  270W        W  277   3.727   2.881   1.392
  271W        W  278   1.751   3.698   0.365
  272W        W  279   4.954   1.318   1.912
  273W        W  280   2.339   1.824   0.156
  274W        W  281   0.284   4.935   0.814
  275W        W  282   0.261   2.010   0.628
  276W        W  283   1.145   4.593   4.862
  277W        W  284   4.293   2.622   0.825
  278W        W  285   1.031   2.780   0.033
  279W        W  286   4.775   4.557   3.170
  280W        W  287   0.423   4.529   2.494
  281W        W  288   2.500   0.052   2.727
  282W        W  289   1.556   0.414   1.724
  283W        W  290   2.786   4.540   3.542
  284W        W  291   1.171   4.653   1.824
  285W        W  292   3.998   4.923   4.742
  286W        W  293   4.478   0.438   0.476
  287W        W  294   0.225   3.019   4.037
  288W        W  295   0.729   1.096   3.776
  289W        W  296   2.907   3.885   1.963
  290W        W  297   4.236   1.175   4.151
  291W        W  298   2.480   0.076   4.493
  292W        W  299   1.945   3.686   0.828
  293W        W  300   2.817   1.331   0.938
  294W        W  301   3.275   0.888   3.419
  295W        W  302   1.049   3.459   1.194
  296W        W  303   1.282   3.163   0.755
  297W        W  304   0.229   1.213   3.828
  298W        W  305   0.975   2.252   1.759
  299W        W  306   1.917   2.396   1.267
  300W        W  307   2.440   0.088   1.400
  301W        W  308   4.249   2.392   4.081
  302W        W  309   1.024   2.765   1.804
  303W        W  310   2.041   3.700   3.593
  304W        W  311   2.740   4.922   3.873
  305W        W  312   2.947   0.151   4.293
  306W        W  313   2.203   0.728   2.075
  307W        W  314   2.594   1.888   4.707
  308W        W  315   1.003   1.793   4.002
  309W        W  316   4.560   3.386   4.927
  310W        W  317   1.545   2.846   1.761
  311W        W  318   2.533   1.503   0.522
  312W        W  319   4.136   3.767   4.585
  313W        W  320   0.293   1.104   1.579
  314W        W  321   0.170   4.631   3.453
  315W        W  322   3.497   3.407   0.147
  316W        W  323   1.259   3.592   4.058
  317W        W  324   0.555   0.882   2.423
  318W        W  325   2.268   0.642   3.392
  319W        W  326   0.510   2.151   0.192
  320W        W  327   4.206   0.685   0.107
  321W        W  328   0.091   4.244   4.219
  322W        W  329   3.616   2.153   4.811
  323W        W  330   4.568   4.923   0.540
  324W        W  331   0.427   0.362   1.030
  325W        W  332   3.103   3.444   1.410
  326W        W  333   4.660   4.847   1.486
  327W        W  334   0.943   1.561   1.123
  328W        W  335   0.356   4.049   2.706
  329W        W  336   1.215   3.185   1.597
  330W        W  337   4.858   1.220   3.490
  331W        W  338   1.059   2.938   1.142
  332W        W  339   4.743   3.902   4.013
  333W        W  340   4.572   3.370   4.436
  334W        W  341   1.312   2.692   3.183
  335W        W  342   2.130   0.804   0.359
  336W        W  343   3.476   1.376   1.844
  337W        W  344   1.147   0.467   0.613
  338W        W  345   2.439   4.528   0.364
  339W        W  346   1.253   4.815   2.289
  340W        W  347   3.110   1.742   4.377
  341W        W  348   4.086   0.623   0.775
  342W        W  349   4.169   4.625   0.444
  343W        W  350   3.736   0.411   4.403
  344W        W  351   4.006   4.145   2.846
  345W        W  352   1.671   1.450   2.441
  346W        W  353   3.203   3.228   2.387
  347W        W  354   2.844   0.411   1.378
  348W        W  355   3.726   4.330   0.499
  349W        W  356   1.580   4.494   3.625
  350W        W  357   1.964   0.156   1.530
  351W        W  358   2.505   3.395   2.734
  352W        W  359   0.394   2.379   1.137
  353W        W  360   2.032   2.024   0.926
  354W        W  361   0.781   2.389   4.827
  355W        W  362   1.654   0.850   0.242
  356W        W  363   4.729   4.459   1.169
  357W        W  364   0.331   0.291   0.302
  358W        W  365   3.079   2.756   4.586
  359W        W  366   4.139   4.589   2.118
  360W        W  367   4.950   1.083   0.364
  361W        W  368   4.970   1.484   1.436
  362W        W  369   0.547   4.082   3.426
  363W        W  370   4.533   0.872   3.903
  364W        W  371   1.581   0.591   3.896
  365W        W  372   2.382   4.134   3.497
  366W        W  373   2.722   0.639   2.117
  367W        W  374   1.937   2.068   3.007
  368W        W  375   4.406   2.966   3.566
  369W        W  376   0.375   3.175   4.516
  370W        W  377   1.715   4.768   3.038
  371W        W  378   4.208   1.722   3.470
  372W        W  379   4.551   0.491   2.040
  373W        W  380   1.983   4.607   0.169
  374W        W  381   4.623   4.387   1.713
  375W        W  382   3.883   4.453   4.506
  376W        W  383   0.039   1.662   2.725
  377W        W  384   4.759   3.180   0.411
  378W        W  385   1.991   0.268   2.015
  379W        W  386   0.942   4.932   4.054
  380W        W  387   4.373   3.770   2.941
  381W        W  388   4.765   1.580   3.149
  382W        W  389   3.240   2.271   4.460
  383W        W  390   3.734   4.018   4.282
  384W        W  391   2.086   1.027   3.871
  385W        W  392   0.432   4.097   4.754
  386W        W  393   1.416   4.744   4.029
  387W        W  394   0.544   3.447   4.048
  388W        W  395   3.446   3.973   0.761
  389W        W  396   2.023   4.091   0.522
  390W        W  397   3.720   1.524   0.888
  391W        W  398   1.886   2.466   1.764
  392W        W  399   2.194   1.175   2.778
  393W        W  400   0.137   2.521   2.955
  394W        W  401   3.974   1.976   3.882
  395W        W  402   2.436   3.815   0.915
  396W        W  403   1.249   4.303   2.204
  397W        W  404   0.317   0.696   0.635
  398W        W  405   0.909   0.283   4.445
  399W        W  406   4.336   2.041   2.609
  400W        W  407   1.431   3.028   3.574
  401W        W  408   4.556   1.777   4.776
  402W        W  409   0.680   3.323   3.100
  403W        W  410   0.923   3.930   2.026
  404W        W  411   0.724   3.569   0.242
  405W        W  412   1.347   1.296   2.828
  406W        W  413   3.310   3.359   4.183
  407W        W  414   4.296   2.361   0.357
  408W        W  415   4.785   1.321   4.663
  409W        W  416   3.351   1.576   0.502
  410W        W  417   3.216   4.777   3.853
  411W        W  418   4.153   0.118   2.852
  412W        W  419   2.272   0.373   4.841
  413W        W  420   4.889   4.242   3.657
  414W        W  421   1.167   1.769   1.703
  415W        W  422   1.505   2.141   1.598
  416W        W  423   0.633   0.502   2.742
  417W        W  424   0.456   1.185   0.408
  418W        W  425   3.271   3.006   1.604
  419W        W  426   2.072   4.336   1.586
  420W        W  427   1.130   1.684   2.593
  421W        W  428   2.461   1.177   1.252
  422W        W  429   2.296   3.250   4.702
  423W        W  430   3.888   1.361   3.364
  424W        W  431   2.807   1.647   1.336
  425W        W  432   4.607   3.057   1.422
  426W        W  433   3.370   3.815   1.700
  427W        W  434   0.704   1.853   1.533
  428W        W  435   3.266   3.823   4.941
  429W        W  436   1.736   2.566   2.937
  430W        W  437   3.424   3.223   3.278
  431W        W  438   1.358   0.002   2.749
  432W        W  439   0.177   1.333   4.344
  433W        W  440   3.111   1.436   3.683
  434W        W  441   0.201   3.063   2.259
  435W        W  442   2.801   2.378   0.665
  436W        W  443   3.400   4.273   4.571
  437W        W  444   3.590   1.964   0.690
  438W        W  445   4.450   2.138   0.875
  439W        W  446   2.294   4.169   3.003
  440W        W  447   1.934   2.618   0.233
  441W        W  448   2.357   0.241   0.928
  442W        W  449   1.930   4.632   3.953
  443W        W  450   0.454   1.692   3.010
  444W        W  451   1.551   2.747   4.010
  445W        W  452   0.462   3.790   1.818
  446W        W  453   3.729   2.390   1.595
  447W        W  454   1.982   0.648   1.637
  448W        W  455   1.619   3.802   2.782
  449W        W  456   0.234   2.518   0.662
  450W        W  457   3.041   1.043   1.930
  451W        W  458   3.374   4.691   0.467
  452W        W  459   2.177   3.361   3.945
  453W        W  460   4.434   0.805   2.887
  454W        W  461   3.234   0.552   4.868
  455W        W  462   3.234   3.653   3.079
  456W        W  463   0.631   2.755   0.885
  457W        W  464   4.355   2.994   1.859
  458W        W  465   0.955   0.184   2.512
  459W        W  466   4.410   2.128   3.648
  460W        W  467   4.707   0.159   2.383
  461W        W  468   4.539   1.408   1.209
  462W        W  469   2.793   4.285   0.103
  463W        W  470   4.728   1.832   2.286
  464W        W  471   3.252   2.529   1.428
  465W        W  472   4.233   4.333   1.287
  466W        W  473   3.405   2.279   2.311
  467W        W  474   2.941   4.615   2.030
  468W        W  475   0.056   0.310   4.790
  469W        W  476   0.665   1.264   4.235
  470W        W  477   4.904   2.941   3.666
  471W        W  478   1.807   2.955   2.565
  472W        W  479   0.864   3.465   1.822
  473W        W  480   3.306   0.816   1.157
  474W        W  481   1.425   0.572   2.544
  475W        W  482   4.266   1.528   1.629
  476W        W  483   4.022   0.974   3.693
  477W        W  484   4.339   1.408   0.421
  478W        W  485   1.863   3.985   3.227
  479W        W  486   1.570   1.782   2.815
  480W        W  487   4.589   4.675   2.338
  481W        W  488   1.923   3.831   1.665
  482W        W  489   4.760   4.373   4.587
  483W        W  490   3.812   1.233   2.330
  484W        W  491   2.082   1.655   2.768
  485W        W  492   4.962   0.887   4.191
  486W        W  493   1.260   0.301   2.113
  487W        W  494   1.960   1.839   2.294
  488W        W  495   3.638   1.283   4.909
  489W        W  496   2.284   1.605   1.480
  490W        W  497   4.855   0.279   1.696
  491W        W  498   2.635   4.040   0.507
  492W        W  499   3.945   2.421   2.410
  493W        W  500   3.543   0.876   2.011
  494W        W  501   1.013   2.291   3.915
  495W        W  502   0.950   2.365   3.385
  496W        W  503   0.835   1.379   2.894
  497W        W  504   4.795   2.895   3.170
  498W        W  505   0.985   0.669   2.311
  499W        W  506   2.549   0.917   3.016
  500W        W  507   2.276   0.722   0.840
  501W        W  508   2.110   1.498   1.938
  502W        W  509   0.020   1.674   0.964
  503W        W  510   3.819   2.060   2.736
  504W        W  511   4.444   0.904   1.014
  505W        W  512   4.119   0.605   1.267
  506W        W  513   1.290   1.283   1.636
  507W        W  514   0.015   3.467   4.202
  508W        W  515   4.384   2.006   4.370
  509W        W  516   4.596   4.091   3.262
  510W        W  517   4.666   0.378   3.883
  511W        W  518   4.832   0.776   0.735
  512W        W  519   1.032   2.323   0.267
  513W        W  520   1.358   2.697   2.639
  514W        W  521   2.911   1.215   3.217
  515W        W  522   1.664   4.127   2.405
  516W        W  523   0.693   3.942   3.889
  517W        W  524   2.025   2.619   4.308
  518W        W  525   4.063   1.649   2.470
  519W        W  526   3.042   0.805   2.941
  520W        W  527   1.953   0.810   3.049
  521W        W  528   0.014   3.537   4.712
  522W        W  529   2.537   2.131   2.264
  523W        W  530   2.061   3.662   4.948
  524W        W  531   1.771   4.486   0.633
  525W        W  532   1.251   3.813   2.404
  526W        W  533   2.011   4.455   3.332
  527W        W  534   3.084   4.607   3.097
  528W        W  535   0.303   2.779   1.554
  529W        W  536   2.880   4.092   0.937
  530W        W  537   0.498   0.932   4.621
  531W        W  538   3.229   0.676   1.637
  532W        W  539   2.093   1.973   4.748
  533W        W  540   0.004   4.833   2.640
  534W        W  541   1.759   3.770   4.040
  535W        W  542   2.809   2.184   1.591
  536W        W  543   0.811   5.000   2.048
  537W        W  544   3.993   1.710   4.326
  538W        W  545   1.691   1.317   0.477
  539W        W  546   3.489   4.678   3.426
  540W        W  547   2.310   0.492   2.879
  541W        W  548   1.783   0.855   0.741
  542W        W  549   2.568   0.379   4.093
  543W        W  550   0.226   1.926   1.352
  544W        W  551   1.766   1.230   4.924
  545W        W  552   1.648   4.425   1.893
  546W        W  553   4.977   4.904   4.452
  547W        W  554   1.656   1.695   1.832
  548W        W  555   3.788   1.263   4.406
  549W        W  556   3.675   3.563   4.688
  550W        W  557   1.571   2.125   2.099
  551W        W  558   0.264   2.734   3.390
  552W        W  559   1.525   3.095   2.970
  553W        W  560   4.317   4.722   0.956
  554W        W  561   0.385   0.877   3.432
  555W        W  562   3.837   1.507   0.362
  556W        W  563   2.179   1.212   0.766
  557W        W  564   0.833   0.362   0.216
  558W        W  565   0.348   3.716   3.088
  559W        W  566   3.295   3.787   4.446
  560W        W  567   1.508   0.141   1.317
  561W        W  568   4.289   1.980   2.083
  562W        W  569   0.164   2.896   0.336
  563W        W  570   0.028   1.937   0.150
  564W        W  571   3.442   0.637   3.854
  565W        W  572   2.965   1.675   3.013
  566W        W  573   4.389   1.462   2.121
  567W        W  574   0.499   0.008   2.713
  568W        W  575   0.548   0.435   4.812
  569W        W  576   4.824   3.614   0.726
  570W        W  577   3.019   0.008   3.431
  571W        W  578   3.177   1.897   3.403
  572W        W  579   0.036   2.005   3.135
  573W        W  580   0.938   1.339   0.466
  574W        W  581   2.353   2.839   3.477
  575W        W  582   3.578   1.049   1.495
  576W        W  583   1.979   3.419   2.701
  577W        W  584   4.722   0.153   0.129
  578W        W  585   1.141   0.451   2.936
  579W        W  586   3.640   2.446   1.099
  580W        W  587   2.349   2.265   4.425
  581W        W  588   1.468   2.072   3.972
  582W        W  589   4.507   3.962   0.518
  583W        W  590   0.376   4.624   1.937
  584W        W  591   2.326   1.999   3.994
  585W        W  592   0.858   1.038   1.959
  586W        W  593   0.561   1.421   4.690
  587W        W  594   4.020   0.913   3.184
  588W        W  595   3.449   1.776   2.161
  589W        W  596   1.162   1.674   3.137
  590W        W  597   0.006   4.678   3.938
  591W        W  598   2.063   4.771   1.830
  592W        W  599   4.925   0.042   3.603
  593W        W  600   0.204   1.615   3.460
  594W        W  601   1.283   0.986   0.619
  595W        W  602   1.521   0.233   0.832
  596W        W  603   1.418   3.653   0.771
  597W        W  604   4.583   2.533   1.220
  598W        W  605   3.396   0.184   4.083
  599W        W  606   2.120   4.863   0.607
  600W        W  607   1.131   2.608   4.297
  601W        W  608   3.111   4.613   2.553
  602W        W  609   1.217   4.382   0.861
  603W        W  610   0.088   2.022   1.851
  604W        W  611   3.090   0.829   0.685
  605W        W  612   0.366   2.775   4.869
  606W        W  613   1.248   4.914   4.496
  607W        W  614   2.740   4.689   4.316
  608W        W  615   3.230   4.313   3.664
  609W        W  616   1.295   2.555   1.422
  610W        W  617   2.958   3.375   3.420
  611W        W  618   3.293   4.324   1.787
  612W        W  619   0.597   4.807   0.386
  613W        W  620   4.104   3.938   3.337
  614W        W  621   2.083   3.601   4.392
  615W        W  622   0.721   4.278   2.982
  616W        W  623   0.608   2.640   0.297
  617W        W  624   4.433   4.982   3.277
  618W        W  625   4.483   2.931   4.700
  619W        W  626   2.447   3.831   4.662
  620W        W  627   4.638   4.322   0.160
  621W        W  628   1.811   1.363   1.479
  622W        W  629   3.756   4.266   1.006
  623W        W  630   3.310   4.161   3.165
  624W        W  631   0.439   4.108   2.203
  625W        W  632   0.379   3.267   1.809
  626W        W  633   2.956   2.187   3.048
  627W        W  634   4.313   3.082   0.654
  628W        W  635   4.126   2.629   4.934
  629W        W  636   0.917   3.503   0.696
  630W        W  637   1.979   3.209   3.504
  631W        W  638   3.089   1.651   2.539
  632W        W  639   3.227   0.434   3.226
  633W        W  640   3.190   0.541   2.254
  634W        W  641   3.382   1.018   4.163
  635W        W  642   4.688   2.865   2.191
  636W        W  643   4.273   0.564   4.204
  637W        W  644   3.912   2.847   2.756
  638W        W  645   3.107   1.946   4.833
  639W        W  646   2.466   2.014   3.086
  640W        W  647   2.471   2.745   4.618
  641W        W  648   3.976   2.755   0.435
  642W        W  649   3.901   3.032   3.437
  643W        W  650   1.203   0.927   3.746
  644W        W  651   0.850   4.463   3.898
  645W        W  652   1.813   1.711   0.098
  646W        W  653   3.315   0.194   1.452
  647W        W  654   0.005   4.430   2.223
  648W        W  655   3.990   1.666   4.894
  649W        W  656   0.715   2.954   4.108
  650W        W  657   3.266   3.263   4.680
  651W        W  658   2.002   0.978   1.205
  652W        W  659   1.425   1.663   1.266
  653W        W  660   0.328   4.611   2.981
  654W        W  661   1.853   4.326   2.823
  655W        W  662   1.672   3.243   3.977
  656W        W  663   1.805   1.332   3.064
  657W        W  664   1.603   4.266   4.128
  658W        W  665   2.752   2.181   0.182
  659W        W  666   2.421   2.416   1.844
  660W        W  667   0.638   2.539   2.055
  661W        W  668   0.852   0.486   1.862
  662W        W  669   2.528   0.265   3.584
  663W        W  670   2.249   3.229   2.316
  664W        W  671   2.973   3.213   2.934
  665W        W  672   3.332   4.876   1.860
  666W        W  673   3.756   0.397   2.981
  667W        W  674   2.747   0.498   4.646
  668W        W  675   4.909   0.831   3.166
  669W        W  676   1.112   4.600   3.090
  670W        W  677   4.642   2.239   0.000
  671W        W  678   0.575   3.168   2.603
  672W        W  679   1.058   1.174   4.613
  673W        W  680   0.374   4.039   1.361
  674W        W  681   3.968   3.783   0.643
  675W        W  682   1.878   2.356   3.907
  676W        W  683   1.385   0.678   1.020
  677W        W  684   3.068   3.170   0.722
  678W        W  685   0.360   0.784   0.118
  679W        W  686   2.993   0.033   2.804
  680W        W  687   2.656   3.503   1.742
  681W        W  688   0.033   2.735   1.110
  682W        W  689   2.276   0.727   4.294
  683W        W  690   2.924   3.528   3.904
  684W        W  691   1.058   2.452   0.974
  685W        W  692   4.625   3.296   3.923
  686W        W  693   3.897   3.775   1.641
  687W        W  694   2.615   3.171   3.750
  688W        W  695   0.211   3.868   3.844
  689W        W  696   3.707   1.951   1.184
  690W        W  697   3.874   3.388   0.998
  691W        W  698   4.826   1.349   2.382
  692W        W  699   1.530   3.170   1.202
  693W        W  700   4.388   1.304   3.648
  694W        W  701   4.092   4.655   3.519
  695W        W  702   4.962   0.024   3.101
  696W        W  703   3.836   3.242   2.446
  697W        W  704   2.835   0.015   1.043
  698W        W  705   0.231   4.475   0.623
  699W        W  706   2.644   1.216   0.085
  700W        W  707   1.863   0.496   1.142
  701W        W  708   2.246   4.374   2.495
  702W        W  709   0.716   3.051   2.093
  703W        W  710   4.109   1.711   2.972
  704W        W  711   1.210   1.965   3.554
  705W        W  712   0.792   0.623   3.687
  706W        W  713   2.881   3.571   4.660
  707W        W  714   2.551   3.427   4.286
  708W        W  715   0.973   0.966   3.288
  709W        W  716   4.946   4.017   4.887
  710W        W  717   3.845   0.826   4.138
  711W        W  718   4.612   4.929   4.120
  712W        W  719   1.692   3.372   1.646
  713W        W  720   3.713   0.805   0.066
  714W        W  721   2.225   1.153   3.349
  715W        W  722   4.194   4.727   1.619
  716W        W  723   3.997   3.319   1.833
  717W        W  724   3.982   2.116   3.255
  718W        W  725   3.348   0.157   4.599
  719W        W  726   3.971   3.839   3.821
  720W        W  727   4.552   0.985   2.128
  721W        W  728   2.647   1.233   3.642
  722W        W  729   2.339   2.894   0.103
  723W        W  730   1.224   3.103   4.193
  724W        W  731   3.779   3.015   4.988
  725W        W  732   4.449   2.491   2.456
  726W        W  733   4.595   2.922   2.685
  727W        W  734   1.963   3.114   4.348
  728W        W  735   2.404   4.740   1.048
  729W        W  736   0.112   3.193   1.315
  730W        W  737   3.580   1.831   1.658
  731W        W  738   4.468   3.860   0.005
  732W        W  739   4.152   1.098   1.372
  733W        W  740   0.053   4.114   0.942
  734W        W  741   0.100   3.013   2.760
  735W        W  742   2.274   3.684   0.423
  736W        W  743   1.146   1.300   4.102
  737W        W  744   0.760   2.258   2.461
  738W        W  745   2.738   3.686   3.092
  739W        W  746   4.283   0.480   2.499
  740W        W  747   2.157   1.287   0.248
  741W        W  748   2.044   3.999   1.201
  742W        W  749   1.054   3.197   0.301
  743W        W  750   2.760   2.575   4.242
  744W        W  751   0.323   0.384   3.595
  745W        W  752   4.631   3.880   4.507
  746W        W  753   2.818   2.509   1.160
  747W        W  754   3.782   3.542   4.182
  748W        W  755   3.736   4.581   1.796
  749W        W  756   3.550   0.850   4.601
  750W        W  757   2.543   4.944   1.939
  751W        W  758   1.292   3.694   1.586
  752W        W  759   2.032   3.256   0.286
  753W        W  760   0.072   0.937   2.246
  754W        W  761   1.173   4.964   0.233
  755W        W  762   0.187   1.252   4.961
  756W        W  763   2.541   4.244   4.391
  757W        W  764   3.002   1.132   1.399
  758W        W  765   0.084   4.578   1.524
  759W        W  766   2.626   4.698   2.401
  760W        W  767   2.518   2.859   2.963
  761W        W  768   3.911   1.634   1.987
  762W        W  769   1.079   1.961   2.174
  763W        W  770   4.175   1.314   0.881
  764W        W  771   0.262   0.540   1.510
  765W        W  772   4.340   4.210   3.716
  766W        W  773   4.040   0.108   1.141
  767W        W  774   2.419   4.445   3.927
  768W        W  775   3.112   3.644   0.946
  769W        W  776   2.817   3.844   1.396
  770W        W  777   4.633   0.324   2.864
  771W        W  778   1.084   2.071   1.297
  772W        W  779   1.057   4.218   3.447
  773W        W  780   2.517   0.784   3.820
  774W        W  781   4.638   2.486   2.926
  775W        W  782   2.993   1.974   2.174
  776W        W  783   0.433   1.469   1.206
  777W        W  784   2.597   0.955   0.537
  778W        W  785   3.229   4.224   2.262
  779W        W  786   1.380   0.138   3.719
  780W        W  787   2.661   1.344   1.701
  781W        W  788   1.288   2.979   2.196
  782W        W  789   3.975   2.425   3.652
  783W        W  790   0.564   2.081   3.849
  784W        W  791   4.731   2.299   2.088
  785W        W  792   3.142   3.734   0.426
  786W        W  793   2.909   1.862   0.577
  787W        W  794   4.153   2.421   2.874
  788W        W  795   3.677   4.104   2.010
  789W        W  796   2.387   1.649   0.988
  790W        W  797   0.277   4.980   2.264
  791W        W  798   4.113   0.111   0.644
  792W        W  799   0.657   4.269   1.728
  793W        W  800   0.864   3.316   4.471
  794W        W  801   1.775   0.122   3.998
  795W        W  802   2.186   0.129   3.213
  796W        W  803   3.930   0.134   3.415
  797W        W  804   2.014   2.854   3.854
  798W        W  805   3.709   4.888   4.332
  799W        W  806   1.797   2.747   3.400
  800W        W  807   3.244   1.245   2.797
  801W        W  808   1.515   2.703   0.996
  802W        W  809   1.888   1.870   3.750
  803W        W  810   2.318   4.091   0.097
  804W        W  811   3.777   0.613   1.627
  805W        W  812   4.551   3.992   1.021
  806W        W  813   3.250   2.737   0.934
  807W        W  814   2.465   4.974   0.095
  808W        W  815   1.076   2.779   3.813
  809W        W  816   4.356   4.650   4.478
  810W        W  817   0.451   0.071   4.486
  811W        W  818   4.280   3.304   2.729
  812W        W  819   3.863   2.062   0.268
  813W        W  820   3.566   3.949   3.534
  814W        W  821   0.854   2.013   2.928
  815W        W  822   0.721   0.204   0.676
  816W        W  823   1.782   0.400   3.452
  817W        W  824   3.589   0.193   0.686
  818W        W  825   4.001   3.628   0.073
  819W        W  826   3.493   3.535   2.667
  820W        W  827   1.003   3.349   2.398
  821W        W  828   3.938   1.458   3.878
  822W        W  829   3.606   3.373   1.531
  823W        W  830   1.795   2.245   3.428
  824W        W  831   2.929   4.086   4.673
  825W        W  832   3.533   2.188   3.684
  826W        W  833   2.669   0.832   1.640
  827W        W  834   1.536   2.823   0.009
  828W        W  835   2.816   4.554   0.717
  829W        W  836   1.690   4.697   1.468
  830W        W  837   3.155   1.899   3.900
  831W        W  838   2.860   1.469   2.148
  832W        W  839   0.375   4.349   3.810
  833W        W  840   2.910   4.754   0.240
  834W        W  841   4.399   3.897   1.520
  835W        W  842   2.778   0.822   4.258
  836W        W  843   0.829   0.003   4.867
  837W        W  844   3.122   3.413   1.896
  838W        W  845   2.821   4.284   1.662
  839W        W  846   2.981   2.959   2.027
  840W        W  847   1.665   0.149   2.373
  841W        W  848   1.172   4.196   1.655
  842W        W  849   0.784   0.762   4.224
  843W        W  850   4.138   3.350   3.763
  844W        W  851   0.236   0.470   3.095
  845W        W  852   0.460   1.639   0.155
  846W        W  853   0.141   4.176   1.809
  847W        W  854   4.159   0.083   4.275
  848W        W  855   0.791   0.810   0.497
  849W        W  856   1.398   1.262   3.359
  850W        W  857   1.148   0.569   1.443
  851W        W  858   3.058   3.855   3.504
  852W        W  859   0.543   2.838   2.984
  853W        W  860   0.107   2.079   3.639
  854W        W  861   2.434   2.019   0.614
  855W        W  862   3.008   3.289   0.209
  856W        W  863   0.208   2.158   4.207
  857W        W  864   3.042   4.303   4.196
  858W        W  865   1.815   2.385   4.808
  859W        W  866   1.083   1.052   1.231
  860W        W  867   4.900   2.601   4.735
  861W        W  868   1.114   1.981   4.902
  862W        W  869   0.522   3.512   1.405
  863W        W  870   2.492   1.483   3.062
  864W        W  871   3.837   2.606   3.201
  865W        W  872   4.965   3.954   2.376
  866W        W  873   4.346   3.534   0.892
  867W        W  874   4.541   0.076   4.659
  868W        W  875   2.742   2.031   1.033
  869W        W  876   1.253   0.535   3.433
  870W        W  877   0.340   4.918   4.955
  871W        W  878   4.170   2.882   2.322
  872W        W  879   2.792   4.171   3.207
  873W        W  880   2.995   0.393   3.793
  874W        W  881   2.120   1.697   3.308
  875W        W  882   2.982   0.284   1.854
  876W        W  883   4.983   4.072   0.449
  877W        W  884   2.898   3.069   4.209
  878W        W  885   4.286   4.462   3.111
  879W        W  886   0.713   0.816   1.502
  880W        W  887   0.327   3.854   0.171
  881W        W  888   4.051   1.980   1.615
  882W        W  889   4.870   3.637   0.225
  883W        W  890   1.456   1.587   3.801
  884W        W  891   0.639   1.911   4.757
  885W        W  892   0.976   4.006   0.635
  886W        W  893   0.575   0.952   2.971
  887W        W  894   2.474   1.213   4.138
  888W        W  895   2.393   2.489   0.417
  889W        W  896   1.770   3.161   2.099
  890W        W  897   2.843   0.130   2.306
  891W        W  898   1.283   4.106   4.995
  892W        W  899   2.908   4.889   1.557
  893W        W  900   4.843   2.522   4.246
  894W        W  901   3.320   1.228   0.882
  895W        W  902   4.248   2.482   1.988
  896W        W  903   2.377   0.377   0.383
  897W        W  904   1.183   4.433   4.346
  898W        W  905   1.832   4.911   3.526
  899W        W  906   1.012   4.466   0.355
  900W        W  907   1.996   0.085   2.739
  901W        W  908   0.277   3.348   0.145
  902W        W  909   2.713   1.664   3.975
  903W        W  910   4.086   1.167   0.059
  904W        W  911   2.221   4.673   2.931
  905W        W  912   2.288   1.462   4.803
  906W        W  913   0.687   2.289   4.328
  907W        W  914   1.755   0.398   4.805
  908W        W  915   3.117   2.419   3.483
  909W        W  916   0.155   0.844   2.733
  910W        W  917   4.906   0.606   0.238
  911W        W  918   2.729   0.344   3.116
  912W        W  919   0.702   2.285   0.657
  913W        W  920   3.463   1.513   4.091
  914W        W  921   0.122   3.396   3.714
  915W        W  922   3.774   4.958   2.120
  916W        W  923   1.251   3.211   4.804
  917W        W  924   2.963   0.946   2.442
  918W        W  925   1.238   2.186   2.621
  919W        W  926   0.351   4.502   1.116
  920W        W  927   1.528   4.749   0.978
  921W        W  928   2.585   2.397   2.764
  922W        W  929   1.644   4.099   0.927
  923W        W  930   1.194   3.954   1.137
  924W        W  931   0.435   4.701   4.166
  925W        W  932   4.740   0.674   2.499
  926W        W  933   1.176   3.539   2.838
  927W        W  934   0.551   0.390   2.263
  928W        W  935   1.451   4.100   0.474
  929W        W  936   0.375   0.851   1.132
  930W        W  937   1.547   1.210   4.449
  931W        W  938   1.699   0.693   2.128
  932W        W  939   3.162   3.050   3.748
  933W        W  940   4.278   2.926   3.077
  934W        W  941   0.192   3.232   3.227
  935W        W  942   0.423   2.648   2.521
  936W        W  943   0.839   4.144   2.499
  937W        W  944   0.790   4.058   0.156
  938W        W  945   1.348   3.461   2.030
  939W        W  946   3.699   3.818   3.043
  940W        W  947   0.126   0.342   2.621
  941W        W  948   3.741   4.842   3.834
  942W        W  949   3.014   0.927   3.832
  943W        W  950   4.318   3.665   4.125
  944W        W  951   2.486   4.199   1.282
  945W        W  952   4.189   4.248   0.772
  946W        W  953   2.806   2.715   1.625
  947W        W  954   1.371   3.809   3.222
  948W        W  955   1.717   0.990   2.653
  949W        W  956   1.526   2.159   1.068
  950W        W  957   1.385   1.546   4.789
  951W        W  958   0.118   0.180   4.052
  952W        W  959   3.691   3.106   4.451
  953W        W  960   4.494   2.211   1.627
  954W        W  961   0.879   1.275   2.406
  955W        W  962   1.021   3.682   4.824
  956W        W  963   3.313   1.281   2.296
  957W        W  964   4.476   0.354   0.975
  958W        W  965   0.069   3.546   2.098
  959W        W  966   0.129   2.616   2.004
  960W        W  967   1.171   0.717   0.169
  961W        W  968   4.222   4.149   4.245
  962W        W  969   3.109   2.685   0.436
  963W        W  970   2.000   2.826   4.761
  964W        W  971   4.938   3.066   4.918
  965W        W  972   4.856   2.421   3.379
  966W        W  973   4.349   1.289   3.113
  967W        W  974   4.351   2.510   3.337
  968W        W  975   4.193   2.669   1.519
  969W        W  976   2.472   3.135   1.430
  970W        W  977   0.327   2.655   4.370
  971W        W  978   0.274   4.541   4.617
  972W        W  979   3.526   4.446   4.106
  973W        W  980   3.484   2.243   3.180
  974W        W  981   1.510   4.010   3.652
  975W        W  982   3.791   1.019   1.039
  976W        W  983   4.048   3.874   1.146
  977W        W  984   3.305   3.730   2.239
  978W        W  985   3.832   4.311   3.759
  979W        W  986   0.145   0.054   1.336
  980W        W  987   4.198   0.013   2.377
  981W        W  988   1.117   1.967   0.801
  982W        W  989   0.784   2.823   4.581
  983W        W  990   0.117   1.699   3.970
  984W        W  991   1.532   3.268   0.274
  985W        W  992   3.859   0.450   0.371
  986W        W  993   0.174   3.109   0.789
  987W        W  994   3.208   0.581   4.343
  988W        W  995   1.443   1.684   4.292
  989W        W  996   2.856   0.343   0.191
  990W        W  997   2.372   1.528   2.359
  991W        W  998   2.876   4.525   1.214
  992W        W  999   4.622   4.405   4.097
  993W        W 1000   1.803   3.952   4.594
  994W        W 1001   3.215   2.014   1.350
  995W        W 1002   4.515   4.214   2.184
  996W        W 1003   1.495   4.307   3.174
  997W        W 1004   0.927   2.515   2.894
  998W        W 1005   3.795   4.738   0.789
  999W        W 1006   3.336   0.505   0.350
 1000W        W 1007   4.042   0.807   2.198
 1001W        W 1008   4.290   1.165   2.549
 1002W        W 1009   4.756   1.314   4.000
 1003W        W 1010   1.332   1.679   0.285
 1004W        W 1011   4.793   4.939   0.993
 1005W        W 1012   2.175   4.880   2.313
 1006W        W 1013   0.844   0.656   1.000
 1007W        W 1014   3.950   0.793   2.700
 1008W        W 1015   4.275   4.244   4.763
 1009W        W 1016   3.461   0.183   3.586
 1010W        W 1017   4.356   1.862   0.226
 1011W        W 1018   0.145   2.532   3.852
 1012W        W 1019   3.968   2.272   0.736
 1013W        W 1020   0.727   3.066   1.502
 1014W        W 1021   0.639   1.958   1.038
 1015W        W 1022   4.115   2.285   1.220
 1016W        W 1023   3.544   2.489   0.602
 1017W        W 1024   3.052   4.564   4.787
 1018W        W 1025   2.512   3.357   0.139
 1019W        W 1026   3.548   0.871   3.012
 1020W        W 1027   0.003   0.837   4.721
 1021W        W 1028   3.834   3.306   2.975
 1022W        W 1029   4.964   0.491   1.109
 1023W        W 1030   1.063   3.739   3.616
 1024W        W 1031   0.842   3.867   1.492
 1025W        W 1032   1.282   1.488   2.119
 1026W        W 1033   2.211   1.083   1.687
 1027W        W 1034   3.501   2.996   0.471
 1028W        W 1035   4.681   1.745   1.785
 1029W        W 1036   2.167   3.418   1.840
 1030W        W 1037   4.268   3.061   0.156
 1031W        W 1038   0.348   1.596   1.745
 1032W        W 1039   3.621   1.764   3.109
 1033W        W 1040   1.297   2.440   4.768
 1034W        W 1041   4.380   4.714   4.993
 1035W        W 1042   3.347   4.921   1.013
 1036W        W 1043   3.780   4.044   4.827
 1037W        W 1044   1.779   0.747   4.352
 1038W        W 1045   3.412   4.319   0.080
 1039W        W 1046   1.041   2.753   0.563
 1040W        W 1047   1.140   4.717   3.581
 1041W        W 1048   2.477   3.269   3.252
 1042W        W 1049   1.872   1.880   1.381
 1043W        W 1050   3.231   4.743   4.363
 1044W        W 1051   3.786   3.641   2.150
 1045W        W 1052   2.031   0.284   4.390
 1046W        W 1053   0.143   1.725   4.698
 1047W        W 1054   4.525   1.597   2.704
 1048W        W 1055   1.660   0.385   2.959
 1049W        W 1056   1.783   3.253   4.829
 1050W        W 1057   0.975   1.645   4.486
 1051W        W 1058   3.432   3.024   2.781
 1052W        W 1059   4.875   4.727   4.913
 1053W        W 1060   1.294   1.192   0.127
 1054W        W 1061   3.954   1.158   1.834
 1055W        W 1062   3.530   4.732   4.795
 1056W        W 1063   2.348   2.107   1.364
 1057W        W 1064   1.684   1.169   1.940
 1058W        W 1065   2.637   2.451   3.327
 1059W        W 1066   4.701   1.282   0.757
 1060W        W 1067   0.851   3.795   4.341
 1061W        W 1068   0.103   1.548   0.489
 1062W        W 1069   2.074   4.182   4.248
 1063W        W 1070   2.331   4.769   3.550
 1064W        W 1071   3.502   3.476   0.666
 1065W        W 1072   0.603   4.246   4.286
 1066W        W 1073   0.714   1.144   0.887
 1067W        W 1074   3.000   0.858   0.196
 1068W        W 1075   4.541   0.913   4.474
 1069W        W 1076   4.499   3.766   2.455
 1070W        W 1077   1.764   3.489   3.154
 1071W        W 1078   1.248   0.308   4.846
 1072W        W 1079   3.805   3.526   3.439
 1073W        W 1080   0.896   2.777   2.460
 1074W        W 1081   3.671   3.145   3.890
 1075W        W 1082   3.339   1.493   1.357
 1076W        W 1083   1.854   1.548   0.991
 1077W        W 1084   2.758   3.784   0.094
 1078W        W 1085   2.784   2.343   4.689
 1079W        W 1086   4.140   3.204   4.235
 1080W        W 1087   2.323   2.377   4.938
 1081W        W 1088   2.094   2.001   1.820
 1082W        W 1089   3.361   2.743   3.194
 1083W        W 1090   0.827   4.319   1.240
 1084W        W 1091   2.574   3.916   2.681
 1085W        W 1092   4.194   1.774   1.165
 1086W        W 1093   0.459   2.296   1.643
 1087W        W 1094   3.560   2.006   4.172
 1088W        W 1095   3.732   0.606   3.451
 1089W        W 1096   1.026   0.908   2.750
 1090W        W 1097   0.295   2.270   4.718
 1091W        W 1098   3.630   2.802   2.343
 1092W        W 1099   1.621   4.919   0.470
 1093W        W 1100   0.787   1.051   0.038
 1094W        W 1101   2.358   0.594   1.312
 1095W        W 1102   4.706   3.155   0.948
 1096W        W 1103   3.152   2.701   2.419
 1097W        W 1104   3.057   4.119   2.735
 1098W        W 1105   3.537   2.706   3.662
 1099W        W 1106   4.056   0.891   4.629
 1100W        W 1107   0.475   4.041   0.615
 1101W        W 1108   3.553   3.750   1.204
 1102W        W 1109   4.248   3.802   2.008
 1103W        W 1110   4.215   0.169   0.133
 1104W        W 1111   2.044   1.136   2.297
 1105W        W 1112   3.482   0.863   2.518
 1106W        W 1113   3.342   4.632   1.410
 1107W        W 1114   1.155   4.079   3.996
 1108W        W 1115   4.767   2.729   0.672
 1109W        W 1116   2.753   2.997   2.525
 1110W        W 1117   1.567   1.989   4.677
 1111W        W 1118   3.499   1.748   0.074
 1112W        W 1119   0.729   1.853   3.411
 1113W        W 1120   1.030   3.040   2.866
 1114W        W 1121   0.890   0.036   3.024
 1115W        W 1122   3.299   3.920   3.973
 1116W        W 1123   1.542   1.168   1.063
 1117W        W 1124   0.775   1.331   1.551
 1118W        W 1125   0.556   1.592   0.709
 1119W        W 1126   1.153   2.106   4.395
 1120W        W 1127   3.582   1.692   3.622
 1121W        W 1128   0.970   3.271   3.771
 1122W        W 1129   3.212   2.229   0.896
 1123W        W 1130   2.784   2.083   4.244
 1124W        W 1131   3.284   2.184   1.821
 1125W        W 1132   0.888   0.148   3.549
 1126W        W 1133   1.586   2.379   4.351
 1127W        W 1134   0.720   4.470   0.762
 1128W        W 1135   4.943   2.218   0.977
 1129W        W 1136   1.655   2.620   2.216
 1130W        W 1137   4.870   4.037   1.411
 1131W        W 1138   0.785   4.676   4.502
 1132W        W 1139   3.932   2.225   4.434
 1133W        W 1140   3.881   4.768   3.076
 1134W        W 1141   4.195   3.005   1.140
 1135W        W 1142   3.286   2.909   0.022
 1136W        W 1143   2.971   1.294   4.172
 1137W        W 1144   3.556   1.163   3.719
 1138W        W 1145   2.035   4.123   2.074
 1139W        W 1146   4.728   1.719   3.628
 1140W        W 1147   2.763   0.813   1.070
 1141W        W 1148   2.540   4.594   4.781
 1142W        W 1149   4.766   3.318   2.420
 1143W        W 1150   1.841   1.374   3.583
 1144W        W 1151   4.755   3.371   2.924
 1145W        W 1152   4.602   0.555   4.838
 1146W        W 1153   3.201   2.424   4.953
 1147W        W 1154   2.316   1.650   4.343
 1148W        W 1155   0.355   3.554   0.614
 1149W        W 1156   1.214   3.686   0.303
 1150W        W 1157   4.874   3.864   2.875
 1151W        W 1158   4.046   2.741   4.429
 1152W        W 1159   2.506   3.026   1.913
 1153W        W 1160   2.779   3.104   4.782
 1154W        W 1161   0.963   0.701   4.706
 1155W        W 1162   1.587   4.944   1.906
 1156W        W 1163   2.817   3.853   4.251
 1157W        W 1164   2.985   0.953   4.701
 1158W        W 1165   0.427   1.250   2.099
 1159W        W 1166   4.764   1.170   2.830
 1160W        W 1167   0.800   1.566   1.998
 1161W        W 1168   4.420   0.932   0.496
 1162W        W 1169   4.781   2.247   0.496
 1163W        W 1170   3.413   3.193   1.097
 1164W        W 1171   0.724   0.502   3.223
 1165W        W 1172   2.046   0.826   4.827
 1166W        W 1173   2.408   2.944   4.158
 1167W        W 1174   0.376   2.125   2.768
 1168W        W 1175   2.094   4.356   4.729
 1169W        W 1176   2.722   3.520   0.587
 1170W        W 1177   2.572   1.812   1.873
 1171W        W 1178   3.744   0.413   2.402
 1172W        W 1179   4.693   3.555   1.260
 1173W        W 1180   0.447   0.034   3.246
 1174W        W 1181   4.719   3.334   3.418
 1175W        W 1182   3.523   2.510   2.754
 1176W        W 1183   1.156   4.715   1.309
 1177W        W 1184   3.175   2.407   3.983
 1178W        W 1185   2.057   1.164   4.428
 1179W        W 1186   0.604   0.304   4.037
 1180W        W 1187   2.696   3.416   1.090
 1181W        W 1188   1.612   4.176   1.427
 1182W        W 1189   2.423   3.983   1.760
 1183W        W 1190   4.745   2.084   4.012
 1184W        W 1191   1.074   0.213   1.079
 1185W        W 1192   1.786   3.218   0.751
 1186W        W 1193   4.203   3.440   1.388
 1187ION     NA 1194   2.863   3.144   1.644
 1188ION     NA 1195   4.705   0.225   1.307
 1189ION     NA 1196   3.336   0.972   4.952
 1190ION     NA 1197   2.101   2.515   3.579
 1191ION     CL 1198   4.366   1.476   0.005
 1192ION     CL 1199   2.463   4.475   3.246
 1193ION     CL 1200   0.574   4.374   0.363
 1194ION     CL 1201   2.114   4.771   1.392
   5.00000   5.00000   5.00000
