one molecule in water
 1201
    1CER6   NOH    1   2.790   2.318   2.675
    1CER6    OH    2   2.693   2.004   2.593
    1CER6   GLA    3   2.948   2.546   2.633
    1CER6   GLB    4   2.550   2.103   2.808
    1CER6   C1A    5   2.614   2.869   2.318
    1CER6   C2A    6   2.229   2.958   1.968
    1CER6   C1B    7   2.193   2.377   2.549
    1CER6   C2B    8   1.985   2.827   2.453
    2W        W    9   1.495   0.821   3.127
    3W        W   10   2.276   4.379   0.851
    4W        W   11   5.055   4.688   2.860
    5W        W   12   4.012   4.510   5.068
    6W        W   13   3.595   3.790   5.262
    7W        W   14   3.026   2.679   3.002
    8W        W   15   1.525   3.724   1.065
    9W        W   16   3.372   0.445   2.683
   10W        W   17   2.891   2.358   2.013
   11W        W   18   0.394   3.593   2.307
   12W        W   19   0.121   0.230   1.920
   13W        W   20   3.247   1.444   4.917
   14W        W   21   2.688   3.049   5.235
   15W        W   22   3.273   4.052   1.223
   16W        W   23   2.431   4.545   1.793
   17W        W   24   4.616   0.921   5.212
   18W        W   25   0.823   0.105   0.652
   19W        W   26   1.259   3.336   3.304
   20W        W   27   3.139   1.761   0.834
   21W        W   28   3.415   1.193   3.145
   22W        W   29   0.097   2.465   0.167
   23W        W   30   4.675   2.727   1.936
   24W        W   31   4.158   0.392   3.947
   25W        W   32   2.276   2.197   3.599
   26W        W   33   0.722   2.399   1.416
   27W        W   34   4.388   5.306   4.807
   28W        W   35   4.724   1.452   5.257
   29W        W   36   3.520   4.799   1.136
   30W        W   37   3.430   2.494   1.925
   31W        W   38   2.218   3.970   3.977
   32W        W   39   2.969   3.123   1.046
   33W        W   40   4.335   0.636   1.571
   34W        W   41   1.251   1.355   0.676
   35W        W   42   0.181   0.529   3.770
   36W        W   43   4.596   2.487   3.814
   37W        W   44   3.634   2.447   4.145
   38W        W   45   0.259   0.398   4.461
   39W        W   46   3.829   2.971   1.985
   40W        W   47   2.297   3.616   1.311
   41W        W   48   2.743   4.463   2.923
   42W        W   49   1.660   1.930   0.709
   43W        W   50   2.402   3.083   0.186
   44W        W   51   1.224   0.608   4.407
   45W        W   52   3.685   5.069   2.606
   46W        W   53   1.426   4.625   2.645
   47W        W   54   1.347   0.060   3.224
   48W        W   55   2.972   1.640   0.098
   49W        W   56   3.587   0.662   0.683
   50W        W   57   1.996   0.566   2.654
   51W        W   58   3.672   3.356   0.461
   52W        W   59   2.715   5.057   0.371
   53W        W   60   4.727   4.081   2.883
   54W        W   61   0.432   4.714   1.334
   55W        W   62   4.010   2.783   0.941
   56W        W   63   1.910   2.466   2.474
   57W        W   64   2.707   4.346   2.332
   58W        W   65   4.965   5.248   3.529
   59W        W   66   1.675   4.349   4.596
   60W        W   67   2.239   1.523   3.757
   61W        W   68   5.047   0.493   1.860
   62W        W   69   3.142   0.401   0.801
   63W        W   70   2.787   1.298   4.646
   64W        W   71   3.607   4.596   2.373
   65W        W   72   0.805   3.617   2.721
   66W        W   73   1.639   4.307   0.941
   67W        W   74   4.021   0.958   0.403
   68W        W   75   0.855   5.170   1.338
   69W        W   76   2.629   1.826   1.619
   70W        W   77   3.845   0.296   5.077
   71W        W   78   2.474   0.860   2.542
   72W        W   79   4.393   5.052   3.890
   73W        W   80   4.659   2.651   0.118
   74W        W   81   3.137   4.186   0.256
   75W        W   82   3.725   4.390   3.221
   76W        W   83   1.563   3.319   2.342
   77W        W   84   2.126   3.860   2.688
   78W        W   85   1.772   0.220   0.149
   79W        W   86   1.096   2.511   2.028
   80W        W   87   2.281   5.042   0.053
   81W        W   88   1.265   1.050   2.287
   82W        W   89   3.667   4.200   2.636
   83W        W   90   3.932   2.834   3.884
   84W        W   91   2.799   4.083   3.835
   85W        W   92   1.718   3.025   0.671
   86W        W   93   1.603   2.247   0.244
   87W        W   94   0.288   3.851   4.587
   88W        W   95   3.298   2.833   4.270
   89W        W   96   2.879   2.756   3.896
   90W        W   97   4.890   0.589   3.646
   91W        W   98   1.718   4.138   0.067
   92W        W   99   1.839   1.570   4.703
   93W        W  100   3.532   1.017   0.380
   94W        W  101   3.437   0.112   0.153
   95W        W  102   4.048   3.825   2.619
   96W        W  103   2.669   3.494   2.326
   97W        W  104   4.492   1.300   4.872
   98W        W  105   1.954   2.646   1.644
   99W        W  106   0.470   2.876   0.556
  100W        W  107   5.261   1.349   2.704
  101W        W  108   2.868   0.734   3.498
  102W        W  109   2.398   3.151   1.051
  103W        W  110   4.535   3.317   3.298
  104W        W  111   0.071   3.639   1.009
  105W        W  112   3.315   2.030   0.316
  106W        W  113   4.559   0.044   1.785
  107W        W  114   5.087   4.547   5.047
  108W        W  115   4.372   5.280   3.385
  109W        W  116   4.355   3.617   2.165
  110W        W  117   0.412   2.566   3.745
  111W        W  118   3.761   1.346   1.277
  112W        W  119   0.088   5.304   0.608
  113W        W  120   3.809   1.285   2.830
  114W        W  121   5.240   3.957   3.589
  115W        W  122   4.981   1.063   1.177
  116W        W  123   4.051   4.744   2.677
  117W        W  124   4.499   2.277   4.704
  118W        W  125   3.781   4.942   5.191
  119W        W  126   2.467   0.229   1.758
  120W        W  127   1.487   0.977   4.262
  121W        W  128   4.292   1.817   0.572
  122W        W  129   4.140   4.677   4.146
  123W        W  130   3.715   4.305   1.393
  124W        W  131   2.065   2.754   2.108
  125W        W  132   4.412   0.937   3.338
  126W        W  133   1.217   2.215   3.110
  127W        W  134   0.220   2.079   2.294
  128W        W  135   0.727   4.505   2.142
  129W        W  136   0.196   0.681   1.774
  130W        W  137   4.435   0.434   3.540
  131W        W  138   3.466   3.436   1.858
  132W        W  139   0.574   1.785   2.484
  133W        W  140   4.249   4.328   1.597
  134W        W  141   2.219   3.722   3.162
  135W        W  142   2.596   1.706   3.480
  136W        W  143   3.035   0.005   0.522
  137W        W  144   2.404   4.698   1.277
  138W        W  145   2.305   2.589   1.276
  139W        W  146   5.261   2.521   3.511
  140W        W  147   1.052   4.049   2.752
  141W        W  148   4.458   3.623   3.737
  142W        W  149   3.629   3.485   3.814
  143W        W  150   4.098   3.967   5.193
  144W        W  151   3.810   2.095   2.003
  145W        W  152   1.695   1.918   4.358
  146W        W  153   2.191   5.161   4.178
  147W        W  154   2.153   4.505   4.366
  148W        W  155   2.893   1.105   2.836
  149W        W  156   0.826   1.222   3.335
  150W        W  157   2.049   1.670   0.420
  151W        W  158   4.102   4.363   2.335
  152W        W  159   1.546   1.747   3.344
  153W        W  160   1.291   0.610   0.047
  154W        W  161   3.547   1.517   4.523
  155W        W  162   4.912   2.532   1.494
  156W        W  163   2.384   2.507   4.029
  157W        W  164   0.736   2.846   3.026
  158W        W  165   0.105   1.060   0.939
  159W        W  166   1.283   2.088   3.576
  160W        W  167   3.712   2.625   0.175
  161W        W  168   3.237   0.312   1.313
  162W        W  169   1.102   0.072   1.631
  163W        W  170   4.758   2.111   1.302
  164W        W  171   5.157   1.885   2.541
  165W        W  172   0.916   1.594   3.678
  166W        W  173   1.841   2.837   1.127
  167W        W  174   1.917   4.899   4.579
  168W        W  175   2.810   0.489   0.376
  169W        W  176   2.092   2.191   0.393
  170W        W  177   5.085   1.960   4.607
  171W        W  178   4.559   3.608   0.177
  172W        W  179   2.793   2.228   3.730
  173W        W  180   2.617   1.074   2.111
  174W        W  181   0.384   5.144   3.636
  175W        W  182   4.393   3.380   4.847
  176W        W  183   0.802   1.981   0.370
  177W        W  184   1.940   3.367   0.980
  178W        W  185   1.546   0.911   3.760
  179W        W  186   2.186   2.539   2.885
  180W        W  187   4.151   2.124   5.068
  181W        W  188   3.708   2.636   4.593
  182W        W  189   1.961   1.540   4.169
  183W        W  190   0.457   4.532   3.515
  184W        W  191   3.009   3.572   2.696
  185W        W  192   4.509   2.925   4.124
  186W        W  193   4.633   3.501   1.761
  187W        W  194   3.671   0.022   2.852
  188W        W  195   4.504   4.636   2.866
  189W        W  196   3.434   2.168   2.380
  190W        W  197   0.863   4.086   4.770
  191W        W  198   1.023   0.296   4.109
  192W        W  199   1.600   4.780   2.142
  193W        W  200   2.525   3.706   3.614
  194W        W  201   2.426   0.896   5.200
  195W        W  202   0.843   1.297   5.261
  196W        W  203   0.758   4.775   1.753
  197W        W  204   0.420   1.776   1.983
  198W        W  205   2.114   0.194   3.832
  199W        W  206   5.242   3.337   2.783
  200W        W  207   2.369   0.829   4.579
  201W        W  208   5.046   2.880   4.343
  202W        W  209   0.158   1.359   3.066
  203W        W  210   4.926   0.456   4.347
  204W        W  211   2.889   1.346   0.551
  205W        W  212   1.284   2.810   4.747
  206W        W  213   1.450   4.675   4.931
  207W        W  214   0.363   5.119   1.557
  208W        W  215   5.146   5.142   1.672
  209W        W  216   4.969   3.100   1.813
  210W        W  217   2.190   2.894   0.662
  211W        W  218   4.796   1.681   0.494
  212W        W  219   4.203   5.246   1.335
  213W        W  220   0.370   3.641   3.405
  214W        W  221   3.602   0.293   1.626
  215W        W  222   2.390   2.413   0.786
  216W        W  223   1.584   4.103   1.953
  217W        W  224   1.517   0.207   4.466
  218W        W  225   1.453   3.874   4.422
  219W        W  226   4.340   1.649   4.101
  220W        W  227   0.236   4.204   3.168
  221W        W  228   4.507   1.824   3.126
  222W        W  229   5.031   3.766   1.615
  223W        W  230   1.574   0.820   1.486
  224W        W  231   3.301   5.097   2.258
  225W        W  232   1.600   3.613   0.099
  226W        W  233   0.445   3.323   0.851
  227W        W  234   2.057   3.025   2.987
  228W        W  235   2.457   3.381   0.646
  229W        W  236   4.816   0.388   1.404
  230W        W  237   0.605   3.548   4.792
  231W        W  238   0.836   3.833   3.249
  232W        W  239   4.699   2.619   2.450
  233W        W  240   2.048   4.659   4.984
  234W        W  241   1.371   4.439   0.282
  235W        W  242   1.243   0.585   1.808
  236W        W  243   5.239   3.809   0.911
  237W        W  244   3.804   1.712   2.512
  238W        W  245   4.763   4.437   0.529
  239W        W  246   1.707   5.074   0.855
  240W        W  247   3.671   5.233   1.341
  241W        W  248   0.575   1.731   4.567
  242W        W  249   1.953   0.401   0.717
  243W        W  250   0.612   2.963   3.479
  244W        W  251   4.704   4.044   2.000
  245W        W  252   0.208   0.070   0.336
  246W        W  253   2.414   3.947   2.196
  247W        W  254   2.921   5.049   4.664
  248W        W  255   0.423   2.836   0.075
  249W        W  256   1.368   3.728   3.654
  250W        W  257   3.263   1.102   4.549
  251W        W  258   3.331   4.399   0.895
  252W        W  259   3.956   5.257   1.728
  253W        W  260   3.079   2.972   3.467
  254W        W  261   3.501   4.740   2.950
  255W        W  262   2.754   5.059   3.501
  256W        W  263   1.889   3.821   2.270
  257W        W  264   4.834   1.512   4.631
  258W        W  265   0.517   4.340   5.020
  259W        W  266   1.486   3.428   4.597
  260W        W  267   2.339   0.229   2.450
  261W        W  268   4.712   4.776   3.620
  262W        W  269   4.727   0.889   1.673
  263W        W  270   0.151   1.448   2.261
  264W        W  271   0.900   4.599   2.655
  265W        W  272   1.888   2.483   0.735
  266W        W  273   1.942   4.372   3.872
  267W        W  274   1.207   2.254   0.573
  268W        W  275   0.480   1.628   4.020
  269W        W  276   2.840   0.361   2.659
  270W        W  277   3.737   2.781   1.470
  271W        W  278   1.542   3.734   5.267
  272W        W  279   5.001   1.351   1.773
  273W        W  280   2.428   2.023   0.027
  274W        W  281   5.190   4.996   0.763
  275W        W  282   0.209   2.039   0.427
  276W        W  283   0.967   4.602   4.840
  277W        W  284   4.381   2.686   0.652
  278W        W  285   0.949   2.728   5.130
  279W        W  286   4.740   4.427   3.277
  280W        W  287   0.393   4.724   2.446
  281W        W  288   2.709   5.082   3.024
  282W        W  289   1.560   0.300   1.604
  283W        W  290   2.931   4.536   3.656
  284W        W  291   1.243   4.558   1.820
  285W        W  292   4.021   4.955   4.766
  286W        W  293   4.695   0.422   0.677
  287W        W  294   0.101   2.898   4.051
  288W        W  295   0.713   1.173   3.859
  289W        W  296   2.909   3.910   2.031
  290W        W  297   4.405   1.202   4.222
  291W        W  298   2.390   5.121   4.657
  292W        W  299   1.939   3.720   0.625
  293W        W  300   2.736   1.065   1.027
  294W        W  301   3.412   0.818   3.439
  295W        W  302   1.030   3.538   1.078
  296W        W  303   1.182   3.122   0.659
  297W        W  304   5.302   1.262   3.793
  298W        W  305   0.821   2.055   1.792
  299W        W  306   1.727   2.383   1.226
  300W        W  307   2.371   5.169   1.255
  301W        W  308   4.347   2.121   4.235
  302W        W  309   0.888   2.899   1.629
  303W        W  310   2.003   3.738   3.589
  304W        W  311   2.656   4.980   3.975
  305W        W  312   3.171   5.265   4.302
  306W        W  313   2.173   0.615   2.125
  307W        W  314   2.722   1.748   4.904
  308W        W  315   0.904   1.520   4.225
  309W        W  316   4.966   3.529   4.890
  310W        W  317   1.501   2.878   1.529
  311W        W  318   2.537   1.580   0.265
  312W        W  319   4.144   3.919   4.689
  313W        W  320   5.305   0.931   1.774
  314W        W  321   5.143   4.725   3.443
  315W        W  322   3.344   3.171   0.022
  316W        W  323   1.183   3.537   4.088
  317W        W  324   0.438   0.559   2.236
  318W        W  325   2.379   0.547   3.527
  319W        W  326   0.475   2.159   0.009
  320W        W  327   4.404   0.538   0.223
  321W        W  328   5.116   4.201   4.292
  322W        W  329   3.646   2.148   4.943
  323W        W  330   4.491   5.024   0.280
  324W        W  331   0.459   0.230   0.937
  325W        W  332   3.223   3.460   1.377
  326W        W  333   4.421   4.786   1.284
  327W        W  334   0.824   1.487   1.152
  328W        W  335   0.477   4.237   2.655
  329W        W  336   1.107   3.352   1.611
  330W        W  337   4.948   1.060   3.528
  331W        W  338   1.015   2.885   1.149
  332W        W  339   4.748   4.016   4.005
  333W        W  340   4.754   3.241   4.528
  334W        W  341   1.179   2.736   3.227
  335W        W  342   2.055   0.701   0.279
  336W        W  343   3.025   1.513   1.746
  337W        W  344   1.057   0.501   0.455
  338W        W  345   2.440   4.605   0.358
  339W        W  346   1.142   4.821   2.253
  340W        W  347   2.970   1.724   4.437
  341W        W  348   4.115   0.530   0.668
  342W        W  349   4.288   4.505   0.059
  343W        W  350   3.946   0.382   4.541
  344W        W  351   4.140   4.282   2.986
  345W        W  352   1.749   1.465   2.585
  346W        W  353   3.216   3.276   2.316
  347W        W  354   2.747   0.136   1.286
  348W        W  355   3.877   4.271   0.340
  349W        W  356   1.490   4.725   3.527
  350W        W  357   1.997   0.073   1.483
  351W        W  358   2.527   3.358   2.812
  352W        W  359   0.245   2.351   1.304
  353W        W  360   2.137   1.964   0.858
  354W        W  361   0.918   2.266   4.830
  355W        W  362   1.675   0.942   0.050
  356W        W  363   4.862   4.609   1.073
  357W        W  364   5.142   0.283   0.370
  358W        W  365   2.939   2.800   4.849
  359W        W  366   4.319   4.809   1.809
  360W        W  367   5.076   1.261   0.299
  361W        W  368   5.003   1.563   1.237
  362W        W  369   0.511   4.005   3.666
  363W        W  370   4.561   0.774   3.953
  364W        W  371   1.479   0.454   4.037
  365W        W  372   2.289   4.162   3.525
  366W        W  373   2.717   0.508   2.193
  367W        W  374   1.828   2.057   2.807
  368W        W  375   4.424   2.931   3.614
  369W        W  376   0.360   2.925   4.544
  370W        W  377   1.576   4.910   3.064
  371W        W  378   4.131   1.572   3.565
  372W        W  379   4.551   0.460   2.028
  373W        W  380   1.726   4.314   5.184
  374W        W  381   4.849   4.734   1.902
  375W        W  382   4.105   4.469   4.595
  376W        W  383   0.108   1.706   2.709
  377W        W  384   0.054   3.225   0.054
  378W        W  385   1.921   0.203   2.010
  379W        W  386   0.870   4.736   4.327
  380W        W  387   4.352   3.754   3.088
  381W        W  388   5.007   1.883   3.029
  382W        W  389   3.211   2.419   4.573
  383W        W  390   3.669   4.000   4.399
  384W        W  391   1.969   1.013   3.954
  385W        W  392   0.328   4.087   0.016
  386W        W  393   1.223   4.890   3.999
  387W        W  394   5.266   3.273   4.580
  388W        W  395   3.569   3.957   0.640
  389W        W  396   2.117   4.179   0.407
  390W        W  397   3.663   1.532   0.788
  391W        W  398   1.847   2.184   1.817
  392W        W  399   2.105   1.089   2.723
  393W        W  400   0.315   2.576   3.068
  394W        W  401   3.949   1.910   3.867
  395W        W  402   2.473   3.871   0.770
  396W        W  403   1.231   4.283   2.275
  397W        W  404   0.149   0.635   0.283
  398W        W  405   0.684   5.205   4.314
  399W        W  406   4.175   2.087   2.495
  400W        W  407   1.044   3.041   3.761
  401W        W  408   4.748   1.628   0.005
  402W        W  409   0.722   3.368   3.137
  403W        W  410   1.000   4.125   1.826
  404W        W  411   0.702   3.799   0.229
  405W        W  412   1.285   1.293   2.826
  406W        W  413   3.389   3.513   4.353
  407W        W  414   4.157   2.362   0.314
  408W        W  415   0.134   1.158   4.804
  409W        W  416   3.331   1.536   0.432
  410W        W  417   3.150   4.978   3.787
  411W        W  418   4.324   0.093   2.781
  412W        W  419   2.296   0.492   4.951
  413W        W  420   4.984   4.353   3.677
  414W        W  421   0.715   1.595   1.627
  415W        W  422   1.361   2.099   1.676
  416W        W  423   0.673   0.424   2.698
  417W        W  424   0.419   1.054   0.280
  418W        W  425   3.319   2.990   1.761
  419W        W  426   2.041   4.337   1.461
  420W        W  427   0.967   1.891   2.731
  421W        W  428   2.253   0.987   1.305
  422W        W  429   2.093   3.124   4.565
  423W        W  430   3.968   1.155   3.279
  424W        W  431   2.871   1.475   1.192
  425W        W  432   4.721   3.097   1.389
  426W        W  433   3.348   3.890   1.709
  427W        W  434   0.443   1.886   1.294
  428W        W  435   3.234   3.762   4.767
  429W        W  436   1.621   2.492   2.937
  430W        W  437   3.549   3.405   3.172
  431W        W  438   1.243   5.067   2.693
  432W        W  439   0.147   0.926   4.343
  433W        W  440   3.138   1.289   3.593
  434W        W  441   5.205   3.126   2.303
  435W        W  442   2.775   2.829   0.567
  436W        W  443   3.627   4.582   4.661
  437W        W  444   3.580   2.052   0.926
  438W        W  445   4.547   2.219   0.806
  439W        W  446   2.280   4.267   3.030
  440W        W  447   1.863   2.754   0.248
  441W        W  448   2.690   0.209   0.820
  442W        W  449   1.705   4.838   3.959
  443W        W  450   0.250   1.881   3.178
  444W        W  451   1.425   2.733   3.913
  445W        W  452   0.374   3.765   1.762
  446W        W  453   3.714   2.238   1.515
  447W        W  454   2.000   0.595   1.617
  448W        W  455   1.619   4.001   2.736
  449W        W  456   5.281   2.411   0.749
  450W        W  457   3.088   1.037   1.940
  451W        W  458   3.502   4.579   0.443
  452W        W  459   2.221   3.423   3.863
  453W        W  460   4.406   0.589   3.012
  454W        W  461   3.309   0.361   4.895
  455W        W  462   3.342   3.876   3.057
  456W        W  463   0.474   2.732   0.997
  457W        W  464   4.318   3.044   1.850
  458W        W  465   0.980   0.080   2.561
  459W        W  466   4.413   2.000   3.714
  460W        W  467   5.079   5.161   2.197
  461W        W  468   4.560   1.313   1.327
  462W        W  469   2.759   4.480   5.185
  463W        W  470   4.954   1.803   2.083
  464W        W  471   3.245   2.541   1.426
  465W        W  472   4.251   4.209   1.143
  466W        W  473   3.107   2.521   2.477
  467W        W  474   3.120   4.659   2.110
  468W        W  475   5.232   0.223   4.683
  469W        W  476   0.542   1.253   4.429
  470W        W  477   4.975   2.846   3.848
  471W        W  478   1.815   2.947   2.532
  472W        W  479   0.920   3.660   2.021
  473W        W  480   3.324   0.785   1.080
  474W        W  481   1.480   0.491   2.480
  475W        W  482   4.172   1.541   1.542
  476W        W  483   4.100   0.872   3.804
  477W        W  484   4.573   1.227   0.286
  478W        W  485   1.868   4.031   3.167
  479W        W  486   1.448   1.743   2.877
  480W        W  487   4.649   4.939   2.387
  481W        W  488   1.802   3.904   1.533
  482W        W  489   4.886   4.667   4.555
  483W        W  490   4.110   1.156   2.325
  484W        W  491   2.183   1.679   2.717
  485W        W  492   5.033   0.895   4.116
  486W        W  493   1.351   5.297   2.246
  487W        W  494   2.152   1.949   2.297
  488W        W  495   3.763   1.270   4.991
  489W        W  496   2.308   1.462   1.235
  490W        W  497   0.004   0.200   1.425
  491W        W  498   2.588   4.129   0.412
  492W        W  499   3.872   2.456   2.337
  493W        W  500   3.652   0.648   1.997
  494W        W  501   0.912   2.006   3.937
  495W        W  502   0.731   2.493   3.338
  496W        W  503   0.593   1.625   2.978
  497W        W  504   0.076   2.327   3.459
  498W        W  505   1.022   0.515   2.346
  499W        W  506   2.583   0.830   3.108
  500W        W  507   2.400   0.676   0.853
  501W        W  508   2.041   1.741   1.844
  502W        W  509   0.011   1.693   0.960
  503W        W  510   3.804   2.095   2.858
  504W        W  511   4.627   0.728   1.048
  505W        W  512   3.703   0.416   1.087
  506W        W  513   1.083   1.137   1.663
  507W        W  514   0.175   3.361   4.319
  508W        W  515   4.374   1.758   4.629
  509W        W  516   4.736   3.929   3.417
  510W        W  517   4.704   0.219   3.965
  511W        W  518   4.953   0.891   0.698
  512W        W  519   0.816   2.434   0.230
  513W        W  520   1.348   2.692   2.536
  514W        W  521   2.952   1.424   3.200
  515W        W  522   1.776   4.356   2.395
  516W        W  523   0.709   3.893   4.205
  517W        W  524   2.042   2.718   4.343
  518W        W  525   4.417   1.572   2.438
  519W        W  526   3.057   0.673   2.995
  520W        W  527   1.979   0.798   3.111
  521W        W  528   0.129   3.309   4.826
  522W        W  529   2.475   2.502   2.281
  523W        W  530   2.018   3.793   5.200
  524W        W  531   1.926   4.594   0.507
  525W        W  532   1.316   3.771   2.331
  526W        W  533   2.003   4.586   3.402
  527W        W  534   3.045   4.759   3.145
  528W        W  535   0.385   2.845   1.579
  529W        W  536   2.989   4.079   0.754
  530W        W  537   0.507   0.795   4.753
  531W        W  538   3.281   0.676   1.712
  532W        W  539   2.256   1.892   4.911
  533W        W  540   0.158   5.087   2.748
  534W        W  541   1.704   3.886   3.979
  535W        W  542   2.688   2.312   1.502
  536W        W  543   5.312   0.102   2.062
  537W        W  544   3.910   1.824   4.340
  538W        W  545   1.715   1.113   0.563
  539W        W  546   3.521   4.804   3.436
  540W        W  547   2.378   0.415   2.915
  541W        W  548   1.582   0.616   0.411
  542W        W  549   2.836   0.463   4.258
  543W        W  550   5.049   1.923   0.888
  544W        W  551   1.630   1.472   0.131
  545W        W  552   1.724   4.688   1.649
  546W        W  553   5.303   5.112   4.277
  547W        W  554   1.263   1.564   1.896
  548W        W  555   4.008   1.347   4.553
  549W        W  556   3.796   3.584   4.771
  550W        W  557   1.664   1.921   2.325
  551W        W  558   0.062   2.835   3.491
  552W        W  559   1.544   3.041   2.903
  553W        W  560   4.328   4.508   0.747
  554W        W  561   0.387   1.005   3.388
  555W        W  562   3.865   1.486   0.292
  556W        W  563   2.182   1.099   0.673
  557W        W  564   0.905   0.590   5.227
  558W        W  565   0.341   3.745   2.874
  559W        W  566   3.232   4.276   4.581
  560W        W  567   1.248   5.182   1.040
  561W        W  568   4.431   1.901   2.056
  562W        W  569   0.157   2.842   5.300
  563W        W  570   0.101   2.128   5.242
  564W        W  571   3.637   0.754   3.873
  565W        W  572   2.708   1.741   2.904
  566W        W  573   4.487   1.245   2.002
  567W        W  574   0.783   5.054   2.428
  568W        W  575   0.564   0.360   0.088
  569W        W  576   0.022   3.262   0.551
  570W        W  577   3.069   0.025   3.499
  571W        W  578   2.977   1.990   3.317
  572W        W  579   5.285   2.349   3.003
  573W        W  580   0.775   1.418   0.516
  574W        W  581   2.474   2.811   3.604
  575W        W  582   3.485   1.263   1.732
  576W        W  583   2.016   3.390   2.638
  577W        W  584   4.655   0.349   5.266
  578W        W  585   1.242   0.450   2.934
  579W        W  586   3.623   2.476   1.082
  580W        W  587   2.323   2.271   4.481
  581W        W  588   1.449   2.225   4.050
  582W        W  589   4.897   3.914   0.413
  583W        W  590   0.223   4.670   1.932
  584W        W  591   2.270   1.947   4.084
  585W        W  592   0.783   0.819   1.985
  586W        W  593   0.740   1.324   0.008
  587W        W  594   3.927   0.628   3.332
  588W        W  595   3.454   1.694   2.176
  589W        W  596   1.077   1.662   3.200
  590W        W  597   5.226   4.667   4.084
  591W        W  598   2.237   4.949   1.680
  592W        W  599   4.886   5.033   4.007
  593W        W  600   5.198   1.523   3.365
  594W        W  601   0.985   0.972   0.621
  595W        W  602   1.408   0.244   0.885
  596W        W  603   1.082   3.703   0.604
  597W        W  604   4.640   2.615   1.093
  598W        W  605   3.564   0.263   4.130
  599W        W  606   1.888   5.141   0.410
  600W        W  607   1.149   2.508   4.350
  601W        W  608   3.178   4.573   2.635
  602W        W  609   0.994   4.250   0.517
  603W        W  610   5.122   1.854   1.609
  604W        W  611   3.123   0.920   0.669
  605W        W  612   5.262   2.679   5.195
  606W        W  613   1.467   4.793   4.426
  607W        W  614   2.765   4.598   4.301
  608W        W  615   3.387   4.374   3.676
  609W        W  616   1.214   2.485   1.400
  610W        W  617   3.132   3.479   3.490
  611W        W  618   3.391   4.376   1.758
  612W        W  619   0.666   4.821   5.205
  613W        W  620   4.159   4.112   3.464
  614W        W  621   1.887   3.459   4.224
  615W        W  622   0.790   4.316   3.078
  616W        W  623   0.481   2.473   5.261
  617W        W  624   4.635   0.160   3.190
  618W        W  625   4.606   2.796   4.664
  619W        W  626   2.269   3.610   4.675
  620W        W  627   4.706   4.239   0.039
  621W        W  628   1.753   1.443   1.548
  622W        W  629   3.800   4.401   0.860
  623W        W  630   3.248   4.332   3.115
  624W        W  631   0.317   4.183   2.173
  625W        W  632   0.166   3.346   1.980
  626W        W  633   2.951   2.184   2.856
  627W        W  634   4.589   3.140   0.426
  628W        W  635   4.135   2.600   4.883
  629W        W  636   0.796   3.360   5.274
  630W        W  637   1.971   3.200   3.451
  631W        W  638   3.107   1.796   2.580
  632W        W  639   3.164   5.216   3.281
  633W        W  640   3.229   0.414   2.202
  634W        W  641   3.551   1.141   4.109
  635W        W  642   4.712   3.124   2.219
  636W        W  643   4.436   0.542   4.415
  637W        W  644   3.840   2.943   2.620
  638W        W  645   3.193   1.950   4.864
  639W        W  646   2.258   2.079   3.069
  640W        W  647   2.403   2.734   4.743
  641W        W  648   4.051   2.945   0.354
  642W        W  649   3.849   3.094   3.476
  643W        W  650   1.072   0.769   3.924
  644W        W  651   0.762   4.440   3.936
  645W        W  652   1.794   1.750   5.159
  646W        W  653   3.132   5.266   1.498
  647W        W  654   5.065   4.555   2.329
  648W        W  655   3.869   1.763   4.811
  649W        W  656   0.602   2.830   4.136
  650W        W  657   3.174   3.254   4.893
  651W        W  658   1.868   0.830   0.954
  652W        W  659   1.265   1.614   1.375
  653W        W  660   0.444   4.695   2.945
  654W        W  661   1.875   4.538   2.857
  655W        W  662   1.559   3.231   3.872
  656W        W  663   1.769   1.285   3.083
  657W        W  664   1.451   4.428   4.079
  658W        W  665   2.855   2.386   0.208
  659W        W  666   2.459   2.630   1.795
  660W        W  667   0.606   2.606   1.952
  661W        W  668   0.713   0.280   1.903
  662W        W  669   2.713   0.276   3.748
  663W        W  670   2.123   3.294   2.183
  664W        W  671   2.993   3.224   3.070
  665W        W  672   3.378   4.876   1.696
  666W        W  673   3.972   0.430   2.872
  667W        W  674   2.656   0.287   4.677
  668W        W  675   4.940   0.608   3.154
  669W        W  676   1.024   4.775   3.109
  670W        W  677   4.626   1.921   5.006
  671W        W  678   0.562   3.135   2.657
  672W        W  679   1.019   0.893   4.840
  673W        W  680   0.233   4.039   1.216
  674W        W  681   3.991   3.732   0.601
  675W        W  682   1.879   2.449   3.886
  676W        W  683   1.384   0.773   0.882
  677W        W  684   3.185   3.160   0.596
  678W        W  685   0.346   0.461   5.091
  679W        W  686   3.190   0.088   3.040
  680W        W  687   2.471   3.553   1.848
  681W        W  688   5.149   2.816   0.984
  682W        W  689   2.205   0.621   4.112
  683W        W  690   2.975   3.630   3.973
  684W        W  691   0.796   2.223   0.872
  685W        W  692   4.789   3.308   4.023
  686W        W  693   3.866   3.825   1.531
  687W        W  694   2.689   3.239   3.894
  688W        W  695   0.225   3.749   4.024
  689W        W  696   3.943   1.855   1.229
  690W        W  697   3.946   3.294   0.894
  691W        W  698   4.884   1.358   2.314
  692W        W  699   1.381   3.183   1.106
  693W        W  700   4.497   1.206   3.746
  694W        W  701   4.112   0.153   3.304
  695W        W  702   0.140   4.969   3.251
  696W        W  703   3.735   3.359   2.367
  697W        W  704   2.836   5.035   1.114
  698W        W  705   0.090   4.728   0.558
  699W        W  706   2.834   1.218   5.169
  700W        W  707   1.784   0.406   1.185
  701W        W  708   2.319   4.413   2.570
  702W        W  709   0.623   3.180   2.008
  703W        W  710   4.090   1.694   2.904
  704W        W  711   1.470   1.721   3.958
  705W        W  712   0.630   0.701   3.704
  706W        W  713   2.774   3.642   4.737
  707W        W  714   2.545   3.586   4.223
  708W        W  715   0.859   0.689   3.156
  709W        W  716   5.038   4.059   4.927
  710W        W  717   4.026   0.824   4.275
  711W        W  718   4.323   0.081   4.284
  712W        W  719   1.686   3.383   1.390
  713W        W  720   3.899   0.550   0.080
  714W        W  721   2.143   1.152   3.429
  715W        W  722   4.101   0.007   1.452
  716W        W  723   4.035   3.454   1.831
  717W        W  724   4.006   2.052   3.348
  718W        W  725   3.181   0.126   4.474
  719W        W  726   3.925   3.905   3.875
  720W        W  727   4.557   0.964   2.559
  721W        W  728   2.641   1.225   3.627
  722W        W  729   2.201   3.071   5.112
  723W        W  730   1.119   2.998   4.258
  724W        W  731   3.994   3.089   4.965
  725W        W  732   4.392   2.397   2.142
  726W        W  733   4.785   3.024   2.693
  727W        W  734   1.611   3.027   4.340
  728W        W  735   2.255   4.875   0.768
  729W        W  736   0.085   3.020   1.166
  730W        W  737   3.667   1.706   1.677
  731W        W  738   4.579   3.818   5.101
  732W        W  739   4.180   1.018   1.256
  733W        W  740   5.192   4.294   0.734
  734W        W  741   0.073   2.911   2.814
  735W        W  742   2.339   3.709   0.290
  736W        W  743   0.956   1.011   4.310
  737W        W  744   0.705   2.208   2.280
  738W        W  745   2.775   3.630   3.194
  739W        W  746   4.276   0.503   2.516
  740W        W  747   2.077   1.202   0.153
  741W        W  748   2.047   3.931   1.092
  742W        W  749   0.949   2.932   0.242
  743W        W  750   2.737   2.586   4.376
  744W        W  751   0.159   0.128   3.440
  745W        W  752   4.874   3.704   4.382
  746W        W  753   2.759   2.582   1.062
  747W        W  754   3.886   3.573   4.282
  748W        W  755   3.887   4.793   1.484
  749W        W  756   3.743   0.875   4.709
  750W        W  757   2.554   4.921   2.092
  751W        W  758   1.309   3.799   1.542
  752W        W  759   1.956   3.280   0.310
  753W        W  760   4.906   0.856   2.121
  754W        W  761   1.123   0.000   0.269
  755W        W  762   5.201   1.539   5.079
  756W        W  763   2.512   4.150   4.354
  757W        W  764   3.154   1.043   1.427
  758W        W  765   5.205   4.638   1.493
  759W        W  766   2.713   4.813   2.608
  760W        W  767   2.541   2.948   3.085
  761W        W  768   4.025   1.549   2.059
  762W        W  769   1.171   2.033   2.244
  763W        W  770   4.144   1.462   0.931
  764W        W  771   5.281   0.537   1.413
  765W        W  772   4.430   4.369   3.730
  766W        W  773   3.998   0.011   0.941
  767W        W  774   2.444   4.478   3.934
  768W        W  775   3.268   3.619   0.825
  769W        W  776   2.840   3.855   1.543
  770W        W  777   4.950   5.242   2.747
  771W        W  778   0.938   1.961   1.312
  772W        W  779   1.020   4.268   3.501
  773W        W  780   2.632   0.758   3.910
  774W        W  781   0.035   2.162   2.847
  775W        W  782   3.044   1.949   2.136
  776W        W  783   0.323   1.346   1.291
  777W        W  784   2.596   0.960   0.433
  778W        W  785   3.371   4.200   2.189
  779W        W  786   1.311   5.225   3.583
  780W        W  787   2.647   1.234   1.569
  781W        W  788   1.207   3.015   2.042
  782W        W  789   4.062   2.393   3.809
  783W        W  790   0.334   1.952   3.686
  784W        W  791   4.974   2.318   2.060
  785W        W  792   3.058   3.643   5.251
  786W        W  793   3.079   1.712   5.304
  787W        W  794   4.212   2.574   2.669
  788W        W  795   3.852   4.385   1.932
  789W        W  796   2.519   1.611   0.760
  790W        W  797   5.292   0.006   2.551
  791W        W  798   4.095   5.185   0.632
  792W        W  799   0.531   4.287   1.657
  793W        W  800   0.701   3.245   4.428
  794W        W  801   1.519   5.249   4.172
  795W        W  802   2.138   0.148   3.306
  796W        W  803   3.852   5.258   3.488
  797W        W  804   2.000   2.980   3.894
  798W        W  805   3.698   5.030   4.265
  799W        W  806   1.543   2.554   3.494
  800W        W  807   3.328   1.249   2.619
  801W        W  808   1.398   2.637   0.895
  802W        W  809   1.895   1.896   3.748
  803W        W  810   2.647   3.968   5.199
  804W        W  811   3.707   0.787   1.462
  805W        W  812   4.683   4.149   0.910
  806W        W  813   3.205   2.723   0.835
  807W        W  814   2.585   4.936   5.156
  808W        W  815   0.910   2.503   3.841
  809W        W  816   4.464   4.833   4.541
  810W        W  817   0.537   0.034   4.421
  811W        W  818   4.461   3.432   2.630
  812W        W  819   3.793   1.963   0.426
  813W        W  820   3.619   3.959   3.538
  814W        W  821   0.559   2.156   2.865
  815W        W  822   0.480   5.015   0.428
  816W        W  823   1.900   0.620   3.616
  817W        W  824   3.528   0.043   0.656
  818W        W  825   4.111   3.461   0.172
  819W        W  826   3.582   3.624   2.739
  820W        W  827   1.022   3.296   2.391
  821W        W  828   4.003   1.296   4.012
  822W        W  829   3.764   3.326   1.432
  823W        W  830   1.832   2.148   3.304
  824W        W  831   2.798   4.179   4.794
  825W        W  832   3.564   2.215   3.666
  826W        W  833   2.531   0.756   1.731
  827W        W  834   1.375   2.701   0.378
  828W        W  835   2.938   4.604   0.392
  829W        W  836   1.321   4.893   1.430
  830W        W  837   3.113   1.817   3.813
  831W        W  838   3.031   1.427   2.228
  832W        W  839   0.312   4.334   3.995
  833W        W  840   3.241   4.998   0.204
  834W        W  841   4.508   3.899   1.447
  835W        W  842   2.832   0.974   4.287
  836W        W  843   0.844   0.018   5.057
  837W        W  844   2.965   3.433   1.838
  838W        W  845   2.910   4.334   1.724
  839W        W  846   3.000   2.844   2.078
  840W        W  847   1.819   0.085   2.440
  841W        W  848   1.003   4.447   1.432
  842W        W  849   0.693   0.572   4.336
  843W        W  850   4.117   3.312   3.931
  844W        W  851   5.125   0.142   3.032
  845W        W  852   0.452   1.705   0.188
  846W        W  853   0.055   4.218   1.736
  847W        W  854   4.133   5.155   4.353
  848W        W  855   0.547   0.682   0.616
  849W        W  856   1.381   1.260   3.382
  850W        W  857   1.221   0.513   1.291
  851W        W  858   3.149   3.954   3.507
  852W        W  859   5.311   2.818   2.751
  853W        W  860   5.201   1.978   3.514
  854W        W  861   2.622   2.057   0.552
  855W        W  862   2.868   3.289   0.193
  856W        W  863   0.216   2.026   4.173
  857W        W  864   3.120   4.312   4.090
  858W        W  865   1.814   2.285   4.937
  859W        W  866   1.005   0.973   1.131
  860W        W  867   5.078   2.483   4.731
  861W        W  868   0.998   1.824   5.052
  862W        W  869   0.211   3.429   1.424
  863W        W  870   2.430   1.336   3.029
  864W        W  871   3.897   2.655   3.227
  865W        W  872   5.117   4.067   2.298
  866W        W  873   4.527   3.535   0.701
  867W        W  874   4.700   0.105   4.780
  868W        W  875   2.602   1.987   1.107
  869W        W  876   1.363   0.482   3.534
  870W        W  877   5.309   4.972   4.813
  871W        W  878   4.278   2.901   2.330
  872W        W  879   2.726   4.108   3.302
  873W        W  880   3.140   0.426   3.854
  874W        W  881   2.052   1.619   3.266
  875W        W  882   2.953   0.296   1.812
  876W        W  883   0.065   4.263   5.276
  877W        W  884   2.938   3.142   4.395
  878W        W  885   4.234   4.642   3.341
  879W        W  886   0.741   0.500   1.468
  880W        W  887   0.333   3.889   5.095
  881W        W  888   4.204   2.055   1.653
  882W        W  889   5.022   3.441   0.219
  883W        W  890   1.246   1.261   3.901
  884W        W  891   0.542   1.942   5.098
  885W        W  892   0.633   3.882   0.789
  886W        W  893   0.495   0.970   2.877
  887W        W  894   2.395   1.229   4.122
  888W        W  895   2.370   2.605   0.269
  889W        W  896   1.737   3.105   1.936
  890W        W  897   3.167   5.111   2.743
  891W        W  898   1.287   4.168   4.921
  892W        W  899   2.799   4.888   1.600
  893W        W  900   4.763   2.480   4.285
  894W        W  901   3.281   1.268   0.967
  895W        W  902   4.093   2.562   1.783
  896W        W  903   2.366   0.305   0.230
  897W        W  904   1.174   4.374   4.461
  898W        W  905   1.690   0.064   3.588
  899W        W  906   0.907   4.689   0.234
  900W        W  907   1.936   5.275   2.970
  901W        W  908   0.482   3.345   0.307
  902W        W  909   2.695   1.629   4.016
  903W        W  910   4.185   1.137   5.248
  904W        W  911   2.260   4.783   2.919
  905W        W  912   2.323   1.322   4.928
  906W        W  913   0.696   2.265   4.285
  907W        W  914   1.837   0.190   4.919
  908W        W  915   3.121   2.499   3.496
  909W        W  916   0.057   0.816   2.520
  910W        W  917   4.848   0.730   0.244
  911W        W  918   2.760   0.361   3.233
  912W        W  919   0.446   2.396   0.602
  913W        W  920   3.531   1.628   4.032
  914W        W  921   0.030   3.355   3.804
  915W        W  922   3.770   4.877   1.996
  916W        W  923   0.976   3.186   4.843
  917W        W  924   3.028   0.845   2.449
  918W        W  925   1.337   2.169   2.655
  919W        W  926   0.095   4.495   0.993
  920W        W  927   1.278   4.701   0.777
  921W        W  928   2.668   2.619   2.709
  922W        W  929   1.523   3.993   0.515
  923W        W  930   1.052   4.063   1.086
  924W        W  931   0.435   4.837   4.069
  925W        W  932   4.784   0.512   2.629
  926W        W  933   1.318   3.592   2.829
  927W        W  934   0.478   0.041   2.292
  928W        W  935   1.224   3.999   0.121
  929W        W  936   0.348   0.673   1.123
  930W        W  937   1.483   1.029   4.858
  931W        W  938   1.708   0.751   2.076
  932W        W  939   3.208   3.215   3.942
  933W        W  940   4.390   2.988   2.990
  934W        W  941   0.280   3.199   3.113
  935W        W  942   0.326   2.924   2.310
  936W        W  943   0.760   4.034   2.286
  937W        W  944   0.875   4.126   5.249
  938W        W  945   1.512   3.582   1.927
  939W        W  946   3.860   3.854   3.074
  940W        W  947   0.177   0.338   2.604
  941W        W  948   3.785   4.883   3.818
  942W        W  949   3.160   0.896   3.902
  943W        W  950   4.343   3.675   4.306
  944W        W  951   2.572   4.152   1.213
  945W        W  952   4.332   4.038   0.465
  946W        W  953   2.858   2.827   1.520
  947W        W  954   1.368   3.893   3.199
  948W        W  955   1.614   0.962   2.646
  949W        W  956   1.338   2.103   1.086
  950W        W  957   1.359   1.504   5.037
  951W        W  958   5.231   0.262   3.989
  952W        W  959   3.596   3.179   4.621
  953W        W  960   4.647   2.190   1.738
  954W        W  961   0.789   1.340   2.614
  955W        W  962   1.079   3.720   5.054
  956W        W  963   3.601   1.219   2.222
  957W        W  964   4.261   0.368   1.139
  958W        W  965   4.995   3.557   2.119
  959W        W  966   0.104   2.643   1.999
  960W        W  967   1.318   0.888   5.308
  961W        W  968   4.129   4.191   4.209
  962W        W  969   3.207   2.686   0.328
  963W        W  970   1.787   2.819   4.814
  964W        W  971   5.002   2.970   4.862
  965W        W  972   4.775   2.242   3.425
  966W        W  973   4.621   1.408   3.308
  967W        W  974   4.328   2.428   3.379
  968W        W  975   4.308   2.824   1.427
  969W        W  976   2.330   3.071   1.553
  970W        W  977   0.198   2.492   4.311
  971W        W  978   0.108   4.605   4.461
  972W        W  979   3.617   4.457   4.151
  973W        W  980   3.514   2.304   3.209
  974W        W  981   1.500   4.229   3.561
  975W        W  982   3.856   1.014   0.903
  976W        W  983   4.172   3.748   1.050
  977W        W  984   3.358   3.737   2.347
  978W        W  985   3.896   4.434   3.686
  979W        W  986   0.130   5.050   1.092
  980W        W  987   4.261   0.036   2.248
  981W        W  988   1.061   1.783   0.809
  982W        W  989   0.795   2.712   4.610
  983W        W  990   0.136   1.487   4.427
  984W        W  991   1.392   3.160   0.159
  985W        W  992   3.754   5.147   0.242
  986W        W  993   5.081   2.951   0.467
  987W        W  994   3.317   0.648   4.389
  988W        W  995   1.370   1.476   4.422
  989W        W  996   2.761   0.495   5.151
  990W        W  997   2.600   1.427   2.529
  991W        W  998   2.804   4.521   0.866
  992W        W  999   4.681   4.524   4.136
  993W        W 1000   1.741   3.917   4.843
  994W        W 1001   3.110   2.136   1.198
  995W        W 1002   4.584   4.345   2.392
  996W        W 1003   1.420   4.401   3.078
  997W        W 1004   0.961   2.456   2.775
  998W        W 1005   4.007   4.724   0.479
  999W        W 1006   3.290   0.504   0.327
 1000W        W 1007   4.148   0.708   2.055
 1001W        W 1008   4.393   1.285   2.912
 1002W        W 1009   4.811   1.409   4.073
 1003W        W 1010   1.262   1.729   0.324
 1004W        W 1011   4.577   4.932   0.755
 1005W        W 1012   2.102   4.713   2.217
 1006W        W 1013   0.847   0.554   0.953
 1007W        W 1014   4.109   0.910   2.770
 1008W        W 1015   4.619   4.112   4.463
 1009W        W 1016   3.702   0.301   3.658
 1010W        W 1017   4.599   2.067   0.311
 1011W        W 1018   5.124   2.290   3.900
 1012W        W 1019   4.060   2.295   0.810
 1013W        W 1020   0.653   3.195   1.338
 1014W        W 1021   0.472   1.767   0.736
 1015W        W 1022   4.179   2.381   1.297
 1016W        W 1023   3.554   2.438   0.612
 1017W        W 1024   3.182   4.641   5.001
 1018W        W 1025   2.466   3.508   5.130
 1019W        W 1026   3.628   0.794   2.932
 1020W        W 1027   5.271   0.726   4.640
 1021W        W 1028   3.981   3.353   2.910
 1022W        W 1029   5.079   0.356   1.003
 1023W        W 1030   0.885   3.588   3.713
 1024W        W 1031   0.737   3.794   1.432
 1025W        W 1032   1.295   1.553   2.403
 1026W        W 1033   2.170   1.249   1.755
 1027W        W 1034   3.615   2.903   0.600
 1028W        W 1035   4.623   1.714   1.615
 1029W        W 1036   2.000   3.476   1.762
 1030W        W 1037   4.417   2.986   5.287
 1031W        W 1038   0.403   1.249   1.837
 1032W        W 1039   3.382   1.831   3.009
 1033W        W 1040   1.358   2.416   5.029
 1034W        W 1041   4.583   4.506   4.963
 1035W        W 1042   3.109   4.940   0.734
 1036W        W 1043   3.684   4.144   4.880
 1037W        W 1044   1.715   0.664   4.570
 1038W        W 1045   3.544   4.471   5.215
 1039W        W 1046   0.924   2.653   0.656
 1040W        W 1047   0.875   4.812   3.596
 1041W        W 1048   2.440   3.302   3.360
 1042W        W 1049   1.712   1.865   1.300
 1043W        W 1050   3.224   4.789   4.291
 1044W        W 1051   3.781   3.830   2.090
 1045W        W 1052   2.062   0.241   4.403
 1046W        W 1053   0.456   1.468   4.997
 1047W        W 1054   4.786   1.585   2.756
 1048W        W 1055   1.756   0.347   3.066
 1049W        W 1056   1.831   3.399   4.930
 1050W        W 1057   0.942   1.375   4.751
 1051W        W 1058   3.400   3.162   2.752
 1052W        W 1059   0.079   0.037   5.060
 1053W        W 1060   1.208   1.215   0.173
 1054W        W 1061   3.982   1.094   1.725
 1055W        W 1062   3.412   5.034   4.790
 1056W        W 1063   2.205   2.079   1.419
 1057W        W 1064   1.669   1.266   2.024
 1058W        W 1065   2.598   2.397   3.181
 1059W        W 1066   4.726   1.332   0.854
 1060W        W 1067   1.049   3.649   4.564
 1061W        W 1068   0.194   1.397   0.563
 1062W        W 1069   1.983   3.998   4.445
 1063W        W 1070   2.151   4.879   3.791
 1064W        W 1071   3.299   3.683   0.290
 1065W        W 1072   0.541   4.343   4.438
 1066W        W 1073   0.584   1.152   0.844
 1067W        W 1074   2.997   1.030   0.128
 1068W        W 1075   4.725   0.966   4.477
 1069W        W 1076   4.906   3.683   2.589
 1070W        W 1077   1.768   3.504   3.122
 1071W        W 1078   1.457   5.195   4.785
 1072W        W 1079   4.006   3.563   3.483
 1073W        W 1080   0.842   2.801   2.381
 1074W        W 1081   3.671   3.115   4.169
 1075W        W 1082   3.320   1.618   1.311
 1076W        W 1083   1.851   1.437   0.903
 1077W        W 1084   2.823   3.784   0.027
 1078W        W 1085   2.813   2.265   4.840
 1079W        W 1086   4.153   3.176   4.477
 1080W        W 1087   2.416   2.375   5.067
 1081W        W 1088   2.343   2.151   1.891
 1082W        W 1089   3.454   2.870   3.212
 1083W        W 1090   0.677   4.330   1.062
 1084W        W 1091   2.627   4.006   2.738
 1085W        W 1092   4.498   1.762   1.090
 1086W        W 1093   0.290   2.152   1.747
 1087W        W 1094   3.453   2.051   4.421
 1088W        W 1095   3.538   0.388   3.188
 1089W        W 1096   1.082   0.874   2.700
 1090W        W 1097   0.357   2.305   4.738
 1091W        W 1098   3.431   2.857   2.286
 1092W        W 1099   1.431   4.965   0.350
 1093W        W 1100   0.831   0.841   0.098
 1094W        W 1101   2.297   0.418   1.258
 1095W        W 1102   4.921   3.252   0.859
 1096W        W 1103   2.875   3.037   2.585
 1097W        W 1104   3.146   4.066   2.632
 1098W        W 1105   3.447   2.809   3.778
 1099W        W 1106   4.253   0.876   4.743
 1100W        W 1107   0.338   4.225   0.579
 1101W        W 1108   3.643   3.671   1.105
 1102W        W 1109   4.161   3.972   1.864
 1103W        W 1110   4.077   0.149   0.345
 1104W        W 1111   2.149   1.251   2.242
 1105W        W 1112   3.749   0.777   2.444
 1106W        W 1113   3.098   4.587   1.300
 1107W        W 1114   1.168   4.044   3.956
 1108W        W 1115   0.012   2.733   0.736
 1109W        W 1116   2.322   2.940   2.530
 1110W        W 1117   1.418   1.971   4.785
 1111W        W 1118   3.622   1.688   5.216
 1112W        W 1119   0.758   2.014   3.449
 1113W        W 1120   1.068   3.131   2.843
 1114W        W 1121   0.725   5.136   2.917
 1115W        W 1122   3.406   3.891   3.990
 1116W        W 1123   1.437   1.210   1.113
 1117W        W 1124   0.587   0.964   1.454
 1118W        W 1125   5.305   1.297   0.731
 1119W        W 1126   1.090   1.997   4.463
 1120W        W 1127   3.612   1.712   3.496
 1121W        W 1128   0.549   3.309   3.941
 1122W        W 1129   3.058   2.303   0.655
 1123W        W 1130   2.750   2.106   4.253
 1124W        W 1131   3.196   2.041   1.689
 1125W        W 1132   0.878   0.300   3.423
 1126W        W 1133   1.638   2.417   4.457
 1127W        W 1134   0.610   4.635   0.666
 1128W        W 1135   0.049   2.170   0.869
 1129W        W 1136   1.589   2.652   1.992
 1130W        W 1137   4.729   4.435   1.512
 1131W        W 1138   0.476   4.810   4.755
 1132W        W 1139   4.002   2.228   4.598
 1133W        W 1140   4.011   5.067   3.079
 1134W        W 1141   4.414   3.095   0.980
 1135W        W 1142   3.453   2.864   4.986
 1136W        W 1143   3.100   1.357   4.105
 1137W        W 1144   3.603   1.220   3.639
 1138W        W 1145   2.046   4.245   1.992
 1139W        W 1146   4.814   1.731   3.654
 1140W        W 1147   2.827   0.648   1.381
 1141W        W 1148   2.522   4.622   4.741
 1142W        W 1149   0.120   3.358   2.589
 1143W        W 1150   1.769   1.382   3.700
 1144W        W 1151   5.072   3.065   3.206
 1145W        W 1152   4.793   0.604   4.794
 1146W        W 1153   3.196   2.389   5.090
 1147W        W 1154   2.464   1.703   4.483
 1148W        W 1155   0.170   3.752   0.442
 1149W        W 1156   1.006   3.420   0.145
 1150W        W 1157   4.852   3.572   3.061
 1151W        W 1158   4.239   2.565   4.354
 1152W        W 1159   2.573   3.096   2.021
 1153W        W 1160   2.600   3.181   4.702
 1154W        W 1161   0.907   0.347   4.729
 1155W        W 1162   1.334   0.162   2.086
 1156W        W 1163   2.958   3.941   4.377
 1157W        W 1164   2.910   0.832   4.807
 1158W        W 1165   0.454   1.099   2.328
 1159W        W 1166   4.878   1.098   2.998
 1160W        W 1167   0.839   1.450   2.135
 1161W        W 1168   4.449   0.872   0.612
 1162W        W 1169   4.858   2.499   0.540
 1163W        W 1170   3.504   3.015   1.081
 1164W        W 1171   0.382   0.531   3.249
 1165W        W 1172   1.950   0.879   4.993
 1166W        W 1173   2.481   2.990   4.293
 1167W        W 1174   0.374   2.519   2.565
 1168W        W 1175   2.248   4.217   4.831
 1169W        W 1176   2.850   3.688   0.491
 1170W        W 1177   2.514   1.599   2.064
 1171W        W 1178   3.794   0.321   2.412
 1172W        W 1179   4.751   3.641   1.142
 1173W        W 1180   0.459   0.065   3.042
 1174W        W 1181   5.032   3.490   3.561
 1175W        W 1182   3.546   2.578   2.772
 1176W        W 1183   0.849   4.799   1.070
 1177W        W 1184   3.161   2.313   4.015
 1178W        W 1185   1.955   1.097   4.491
 1179W        W 1186   0.531   0.211   3.953
 1180W        W 1187   2.818   3.653   1.065
 1181W        W 1188   1.528   4.309   1.440
 1182W        W 1189   2.350   4.015   1.670
 1183W        W 1190   4.812   1.911   4.112
 1184W        W 1191   0.972   0.124   1.147
 1185W        W 1192   1.525   3.455   0.600
 1186W        W 1193   4.301   3.342   1.379
 1187NA      NA 1194   2.726   3.351   1.426
 1188NA      NA 1195   4.877   5.116   1.182
 1189NA      NA 1196   3.339   0.812   5.022
 1190NA      NA 1197   1.983   2.641   3.395
 1191CL      CL 1198   4.219   1.590   5.084
 1192CL      CL 1199   2.482   4.638   3.378
 1193CL      CL 1200   0.419   4.571   0.188
 1194CL      CL 1201   1.909   4.672   1.161
   5.00000   5.00000   5.00000
