one molecule in water
 1201
    1CER6   NOH    1   2.696   0.661   4.254  0.3742  0.0537  0.0959
    1CER6    OH    2   2.905   0.628   3.952 -0.4659 -0.5522 -0.0933
    1CER6   GLA    3   2.700   0.638   4.519 -0.0144 -0.3930 -0.1723
    1CER6   GLB    4   2.676   0.815   3.992  0.0277  0.0887  0.2453
    1CER6   C1A    5   2.180   0.918   4.316  0.0393 -0.2197  0.2448
    1CER6   C2A    6   1.874   1.308   4.009 -0.1791  0.2091 -0.1166
    1CER6   C1B    7   2.366   1.070   3.804 -0.1978  0.1933  0.0260
    1CER6   C2B    8   1.896   1.212   3.544 -0.2732  0.0649  0.1606
    2W        W    9   2.384   2.393   1.136 -0.1686  0.1473  0.2125
    3W        W   10   4.116   2.854   3.432 -0.2316  0.0304  0.0143
    4W        W   11   0.569   0.492   2.427  0.0610 -0.0499  0.1982
    5W        W   12   1.086   4.820   1.762  0.2953  0.2709  0.0185
    6W        W   13   3.447   0.995   1.509  0.0869  0.0965  0.1878
    7W        W   14   1.189   2.049   3.206 -0.1324  0.0470  0.4453
    8W        W   15   1.606   4.541   2.099 -0.0048  0.0105 -0.1488
    9W        W   16   1.198   4.539   2.421 -0.1358  0.0181  0.0365
   10W        W   17   5.201   3.913   3.952  0.3537 -0.1972 -0.0881
   11W        W   18   4.059   2.657   1.982 -0.1661  0.1055 -0.1473
   12W        W   19   3.517   4.962   5.128 -0.1326  0.0147 -0.0889
   13W        W   20   1.394   0.357   4.910 -0.1948 -0.1271 -0.1088
   14W        W   21   1.866   2.171   0.527 -0.2041 -0.2852 -0.2850
   15W        W   22   0.148   2.545   0.032  0.0193  0.0247 -0.0553
   16W        W   23   0.131   1.420   3.508 -0.2071 -0.1564  0.3554
   17W        W   24   3.506   2.737   1.951  0.0819  0.0165  0.0019
   18W        W   25   4.771   4.419   3.455 -0.2226 -0.0752  0.0683
   19W        W   26   2.045   2.122   3.581  0.2751  0.0844  0.0555
   20W        W   27   0.444   0.695   1.969 -0.1882 -0.1236 -0.1303
   21W        W   28   3.413   0.246   5.052  0.4032  0.1672 -0.0209
   22W        W   29   4.139   2.012   1.191 -0.0052 -0.3676  0.0890
   23W        W   30   1.172   1.274   4.404 -0.0032  0.1348 -0.3739
   24W        W   31   4.766   0.608   0.095 -0.1413 -0.2011 -0.0281
   25W        W   32   3.405   3.229   1.873  0.0527 -0.0634 -0.0144
   26W        W   33   4.892   1.252   0.864 -0.0361  0.1414  0.0591
   27W        W   34   4.089   0.109   3.250  0.3122  0.1635  0.0959
   28W        W   35   2.382   0.881   0.145  0.0354 -0.0267  0.0548
   29W        W   36   1.247   0.065   0.059  0.0021 -0.2449 -0.0632
   30W        W   37   0.031   0.277   0.108 -0.2750 -0.2337 -0.2131
   31W        W   38   1.002   3.309   0.122  0.1650  0.2528 -0.1727
   32W        W   39   1.820   0.595   2.150 -0.0901 -0.0475 -0.2282
   33W        W   40   4.184   0.210   3.793 -0.0235  0.0103  0.2086
   34W        W   41   1.872   2.940   4.144 -0.2732 -0.2718 -0.0676
   35W        W   42   5.137   1.515   4.201  0.2082 -0.0232 -0.1391
   36W        W   43   4.438   3.281   3.106 -0.1093 -0.0017  0.1711
   37W        W   44   3.532   2.270   0.457 -0.2060 -0.0925 -0.3134
   38W        W   45   3.220   3.273   0.059  0.0589  0.2243 -0.1995
   39W        W   46   3.535   3.763   4.491  0.0236 -0.0367  0.1073
   40W        W   47   0.032   3.340   3.454  0.0588 -0.1674 -0.2672
   41W        W   48   3.397   4.749   2.055  0.0934  0.0952  0.2279
   42W        W   49   3.345   1.126   3.051  0.0801 -0.0687  0.0042
   43W        W   50   1.439   4.679   3.867  0.0120  0.2352 -0.1002
   44W        W   51   0.235   3.720   2.034  0.0650 -0.2296 -0.0514
   45W        W   52   3.457   1.535   1.338  0.0452  0.1517 -0.1814
   46W        W   53   1.392   0.542   2.966 -0.0014 -0.2714 -0.1148
   47W        W   54   4.332   3.700   2.839  0.0554 -0.0226 -0.2631
   48W        W   55   2.096   4.765   5.246 -0.2082  0.0076  0.1310
   49W        W   56   5.094   2.135   4.060  0.0758  0.2573  0.0884
   50W        W   57   1.929   1.710   2.342 -0.1189 -0.1622 -0.2278
   51W        W   58   4.338   3.012   0.998 -0.0587 -0.1481  0.1385
   52W        W   59   0.208   1.671   5.150  0.3539  0.0645 -0.6012
   53W        W   60   3.877   2.249   3.716  0.3588  0.0741 -0.0711
   54W        W   61   3.721   3.611   1.079  0.0580 -0.0897  0.0772
   55W        W   62   4.722   1.414   4.761  0.1903 -0.3762 -0.1291
   56W        W   63   5.140   3.199   1.049  0.1912 -0.0863 -0.0528
   57W        W   64   3.452   3.995   2.280 -0.1332 -0.0726  0.0714
   58W        W   65   1.752   0.136   0.750 -0.1447 -0.3158 -0.1527
   59W        W   66   4.371   4.493   0.352 -0.2916 -0.0106 -0.0628
   60W        W   67   1.812   4.554   4.268 -0.3249 -0.1268  0.2451
   61W        W   68   0.542   2.654   3.456  0.2631 -0.3897  0.5706
   62W        W   69   1.397   3.795   3.222 -0.2596  0.0369  0.4869
   63W        W   70   3.193   3.934   0.262 -0.1112  0.0391 -0.2362
   64W        W   71   2.784   3.630   4.205 -0.0143  0.2860  0.1487
   65W        W   72   2.177   1.892   3.164 -0.1272 -0.1501  0.0711
   66W        W   73   2.100   0.341   1.114  0.1500  0.0361 -0.2100
   67W        W   74   4.584   2.969   2.625 -0.2795  0.0725 -0.0723
   68W        W   75   5.087   0.659   2.563 -0.0580 -0.1125 -0.1176
   69W        W   76   2.431   4.326   3.680  0.0268 -0.1140  0.3280
   70W        W   77   4.277   3.315   0.441 -0.0303 -0.0240  0.0535
   71W        W   78   2.207   3.623   3.141  0.0053  0.1612 -0.1375
   72W        W   79   5.099   2.417   2.587 -0.0415 -0.0585 -0.0305
   73W        W   80   1.064   4.654   2.990  0.1098  0.0995 -0.3393
   74W        W   81   0.371   4.191   5.003 -0.0157 -0.0570 -0.3486
   75W        W   82   1.521   2.141   4.048 -0.0213 -0.2425 -0.2134
   76W        W   83   5.065   0.543   0.453 -0.1092 -0.0355  0.0231
   77W        W   84   0.612   5.247   3.409  0.0679  0.0753  0.0876
   78W        W   85   1.076   1.901   4.239 -0.0479  0.0306  0.0343
   79W        W   86   0.808   5.031   2.097  0.0528 -0.1166  0.1075
   80W        W   87   3.341   0.520   3.332 -0.2792 -0.1160 -0.1440
   81W        W   88   4.654   3.977   1.032  0.1445  0.1932 -0.1472
   82W        W   89   4.017   4.983   5.165  0.3158 -0.3156  0.2471
   83W        W   90   1.089   0.196   3.289 -0.0684  0.1327 -0.0270
   84W        W   91   3.934   3.955   2.443 -0.0298  0.1681 -0.0940
   85W        W   92   0.519   0.432   3.677  0.1043 -0.3307 -0.1879
   86W        W   93   1.318   1.335   1.267  0.0153  0.4320 -0.1895
   87W        W   94   4.844   4.927   2.141 -0.0474 -0.0239 -0.1012
   88W        W   95   1.670   1.313   1.608  0.2187 -0.1445 -0.2121
   89W        W   96   2.344   0.360   4.299  0.0390  0.2093 -0.0940
   90W        W   97   4.427   3.712   2.339  0.2867 -0.2254  0.0115
   91W        W   98   1.302   1.095   3.517  0.0609 -0.0740  0.0767
   92W        W   99   2.977   3.226   3.710 -0.1468 -0.1562  0.0930
   93W        W  100   4.662   0.178   0.319  0.0432 -0.1340  0.0733
   94W        W  101   5.190   5.215   3.723  0.0704  0.1293 -0.0747
   95W        W  102   2.053   4.747   3.858 -0.1504 -0.0099  0.2870
   96W        W  103   3.420   2.416   5.196 -0.1553  0.0334  0.2412
   97W        W  104   4.760   3.385   3.471  0.0641  0.3162  0.0455
   98W        W  105   0.330   2.479   1.196  0.0274 -0.0055 -0.0145
   99W        W  106   0.648   4.109   1.676  0.3716 -0.2848  0.2125
  100W        W  107   2.662   4.590   3.254 -0.0203 -0.0092  0.1739
  101W        W  108   2.519   3.942   3.960  0.3890  0.0211  0.1236
  102W        W  109   4.459   4.638   2.450  0.0512  0.0843  0.1365
  103W        W  110   4.813   2.929   1.851  0.3475 -0.0919  0.2901
  104W        W  111   2.648   2.276   4.477  0.1502  0.1051 -0.2627
  105W        W  112   2.831   2.758   3.690 -0.0077  0.1787 -0.2041
  106W        W  113   2.973   3.654   5.095  0.0616  0.1510 -0.0972
  107W        W  114   1.317   5.062   3.059  0.1689  0.0189 -0.2914
  108W        W  115   1.762   1.659   0.622 -0.0548  0.0729  0.0152
  109W        W  116   4.618   2.095   3.067 -0.0145  0.0054  0.3366
  110W        W  117   1.584   4.775   3.340  0.1186  0.1564 -0.2553
  111W        W  118   2.412   2.678   0.724  0.2984  0.0692 -0.0956
  112W        W  119   4.984   2.372   1.462  0.1802  0.1671 -0.1551
  113W        W  120   0.644   2.163   4.350 -0.0351  0.1051 -0.0819
  114W        W  121   4.169   5.145   2.540 -0.0202 -0.0221 -0.5087
  115W        W  122   4.108   0.766   0.910 -0.0074  0.0478 -0.6366
  116W        W  123   2.790   0.235   2.740  0.0682 -0.1965 -0.1233
  117W        W  124   4.401   2.181   3.740 -0.0395 -0.0290 -0.0097
  118W        W  125   2.601   1.847   1.722 -0.3785  0.1999 -0.0002
  119W        W  126   3.416   2.684   1.261  0.1846  0.4795  0.0706
  120W        W  127   1.888   2.007   0.995 -0.1197  0.2515  0.3987
  121W        W  128   3.819   1.070   0.146 -0.0409  0.0708 -0.2027
  122W        W  129   3.399   2.862   2.898  0.0644  0.0842  0.0325
  123W        W  130   0.510   3.697   3.325 -0.1432 -0.1800 -0.1495
  124W        W  131   3.507   4.442   2.419 -0.2360  0.1327 -0.3299
  125W        W  132   5.161   1.092   3.870  0.5021 -0.1271  0.2024
  126W        W  133   1.261   3.442   3.550  0.4406 -0.0903  0.0009
  127W        W  134   4.716   2.660   2.297 -0.1701 -0.0331 -0.2915
  128W        W  135   0.398   1.255   0.777 -0.1436 -0.0408  0.0188
  129W        W  136   2.873   0.684   3.507 -0.1114  0.2314 -0.2968
  130W        W  137   4.723   4.871   0.384  0.1650  0.2480 -0.1755
  131W        W  138   0.298   4.366   1.376 -0.2173  0.2063 -0.2844
  132W        W  139   4.969   4.933   0.883  0.0900 -0.2701  0.1266
  133W        W  140   2.248   3.211   2.756 -0.1246  0.2209  0.3005
  134W        W  141   0.061   3.549   2.573 -0.0359  0.3084  0.0274
  135W        W  142   4.338   0.792   3.428 -0.1089  0.0249  0.1777
  136W        W  143   3.625   4.843   4.304 -0.0740 -0.2675  0.0943
  137W        W  144   2.941   1.475   1.421  0.0524  0.2633  0.2015
  138W        W  145   2.631   1.773   2.814  0.2249 -0.1723  0.0090
  139W        W  146   3.780   5.006   0.645  0.2638 -0.0232 -0.0872
  140W        W  147   3.435   3.332   2.987 -0.3976 -0.0937 -0.1015
  141W        W  148   2.473   0.592   0.851 -0.0494  0.0906  0.1284
  142W        W  149   4.607   1.656   2.890  0.0547  0.0450  0.1110
  143W        W  150   1.245   4.052   0.210 -0.0265  0.0229 -0.0044
  144W        W  151   1.970   2.521   0.920 -0.1221  0.2238  0.3378
  145W        W  152   0.221   2.317   0.450  0.3474 -0.1194  0.1235
  146W        W  153   3.646   0.658   1.140 -0.1361  0.0896 -0.1916
  147W        W  154   0.971   4.406   1.460  0.2177  0.1082  0.5009
  148W        W  155   2.169   4.628   3.344 -0.1190  0.4418 -0.0613
  149W        W  156   5.176   3.036   4.235 -0.0944  0.2392 -0.1419
  150W        W  157   1.753   4.165   1.185  0.2496  0.0931 -0.0592
  151W        W  158   4.737   0.269   4.185  0.2189  0.0309 -0.2960
  152W        W  159   2.181   4.162   3.117 -0.1466  0.1870 -0.2456
  153W        W  160   3.365   5.050   3.058 -0.1194  0.0889 -0.1434
  154W        W  161   0.427   3.786   3.777 -0.2091 -0.0214 -0.0676
  155W        W  162   4.014   4.356   4.440  0.2186 -0.1580  0.4106
  156W        W  163   2.750   1.655   0.526  0.1410 -0.0744  0.0181
  157W        W  164   0.696   1.586   0.942  0.1498 -0.1050 -0.0098
  158W        W  165   4.402   2.417   5.010  0.1861 -0.2931 -0.4208
  159W        W  166   1.212   3.072   1.066 -0.2619 -0.2075 -0.2470
  160W        W  167   1.963   4.970   0.529 -0.2883  0.0798 -0.1283
  161W        W  168   1.518   4.967   1.623 -0.2115  0.2953 -0.2688
  162W        W  169   1.798   3.438   2.800 -0.0461  0.3409  0.0322
  163W        W  170   3.817   3.240   0.723 -0.2129 -0.0618 -0.1704
  164W        W  171   0.323   4.836   4.194  0.3202 -0.0638 -0.2254
  165W        W  172   0.266   5.151   0.283 -0.0003 -0.0407  0.1489
  166W        W  173   0.372   1.337   4.006  0.1729  0.0984 -0.1211
  167W        W  174   2.593   2.574   2.207  0.4495  0.3036 -0.1154
  168W        W  175   2.526   0.582   3.057 -0.0351  0.0941 -0.1867
  169W        W  176   4.475   0.686   2.562 -0.2880  0.0438 -0.0440
  170W        W  177   2.905   3.733   2.495  0.1363  0.0259 -0.2170
  171W        W  178   1.933   1.092   1.250 -0.1501 -0.2808  0.2812
  172W        W  179   4.401   3.990   4.285 -0.0425  0.0604 -0.0752
  173W        W  180   2.731   4.149   0.379 -0.1528 -0.3199  0.0005
  174W        W  181   2.069   3.066   3.347  0.1326 -0.0910 -0.1158
  175W        W  182   3.676   0.527   2.357 -0.1785  0.0676 -0.1977
  176W        W  183   0.840   4.047   5.072 -0.1415 -0.2333 -0.0985
  177W        W  184   1.447   4.999   2.120  0.3416 -0.3112 -0.0163
  178W        W  185   1.715   2.797   1.248  0.0773 -0.2912  0.0559
  179W        W  186   4.697   3.364   5.128  0.0127 -0.2438 -0.2237
  180W        W  187   5.163   2.674   4.806  0.0156  0.2911 -0.1023
  181W        W  188   0.966   4.047   2.578  0.0198  0.0054  0.2241
  182W        W  189   3.049   1.659   0.964 -0.2939 -0.1740 -0.0234
  183W        W  190   1.462   0.636   0.092  0.0785  0.2931 -0.0945
  184W        W  191   3.743   3.100   5.154  0.0589 -0.0044 -0.1412
  185W        W  192   3.542   0.924   3.527  0.1446 -0.0377  0.2159
  186W        W  193   0.816   3.133   4.400  0.2446 -0.0300  0.2459
  187W        W  194   3.140   4.293   1.242 -0.3275 -0.1329  0.1840
  188W        W  195   5.065   1.876   1.346 -0.2690  0.1199  0.1243
  189W        W  196   4.933   0.186   3.302 -0.3111 -0.1628 -0.2002
  190W        W  197   5.101   0.035   0.565  0.1376 -0.0639 -0.2732
  191W        W  198   2.883   2.271   3.995 -0.1802  0.0967 -0.0778
  192W        W  199   1.209   4.557   0.976  0.2323  0.2026  0.0894
  193W        W  200   0.247   1.389   2.483  0.2223 -0.0704 -0.2449
  194W        W  201   3.983   4.532   2.557  0.2203  0.3326  0.1153
  195W        W  202   2.399   0.059   0.894  0.0522  0.1940 -0.0120
  196W        W  203   4.179   3.986   1.024  0.0064 -0.0854  0.0211
  197W        W  204   4.494   2.669   3.848  0.0763 -0.1763 -0.3340
  198W        W  205   1.040   3.453   2.420  0.0268  0.0192  0.0626
  199W        W  206   3.503   4.325   0.440 -0.1667 -0.1610  0.0274
  200W        W  207   5.194   1.445   1.591 -0.2345 -0.0805 -0.2770
  201W        W  208   5.160   0.608   3.050  0.1556  0.2247  0.2751
  202W        W  209   0.471   3.130   3.365 -0.0011  0.1900 -0.1056
  203W        W  210   0.283   3.221   2.955 -0.0606 -0.2347 -0.5503
  204W        W  211   0.690   4.065   0.299  0.1272 -0.0069 -0.0620
  205W        W  212   0.550   4.347   2.733  0.2186  0.0205  0.3113
  206W        W  213   2.045   0.816   2.645  0.0220  0.0219  0.0211
  207W        W  214   0.240   0.564   0.936 -0.1000  0.0561 -0.0892
  208W        W  215   3.701   2.327   1.861  0.2589  0.4594 -0.0054
  209W        W  216   4.813   1.902   5.041  0.0352  0.0009  0.1968
  210W        W  217   1.502   2.769   0.801  0.1431  0.0542  0.3715
  211W        W  218   3.792   0.408   4.175 -0.0136 -0.2355 -0.0279
  212W        W  219   2.185   3.393   1.578  0.2217  0.2320 -0.2786
  213W        W  220   0.661   4.697   3.246 -0.1142  0.4802  0.0787
  214W        W  221   1.083   1.667   2.755  0.2491 -0.1809  0.2422
  215W        W  222   0.158   0.229   2.712 -0.4252 -0.0817 -0.2586
  216W        W  223   2.691   1.450   3.760 -0.0541  0.1504 -0.4681
  217W        W  224   0.931   3.012   3.603  0.1004  0.1267 -0.4728
  218W        W  225   3.850   3.065   2.985 -0.1593 -0.1063  0.0292
  219W        W  226   5.152   0.963   1.807 -0.1674 -0.1495  0.3717
  220W        W  227   0.557   3.166   1.965 -0.2427 -0.2299 -0.2979
  221W        W  228   3.715   0.741   2.817  0.1899  0.1683  0.0776
  222W        W  229   3.810   3.557   4.926  0.0124  0.1004  0.0946
  223W        W  230   2.272   0.569   3.868 -0.1072  0.2481 -0.0742
  224W        W  231   4.249   5.003   1.701  0.2595 -0.0862 -0.2128
  225W        W  232   5.213   4.117   1.149 -0.0562 -0.0391 -0.2516
  226W        W  233   3.324   0.743   0.219  0.0394 -0.3026  0.0663
  227W        W  234   2.392   3.539   4.990 -0.1537  0.2869  0.1208
  228W        W  235   2.598   3.091   1.520  0.3460  0.2022  0.0250
  229W        W  236   2.620   0.592   5.018 -0.1453  0.1272 -0.5224
  230W        W  237   0.679   1.941   2.962 -0.2803  0.2735  0.2676
  231W        W  238   4.314   0.346   4.487  0.1178 -0.0576  0.2457
  232W        W  239   1.715   3.641   3.800 -0.1397  0.2977 -0.1713
  233W        W  240   4.700   5.113   2.568  0.1151 -0.1073 -0.2134
  234W        W  241   5.129   2.602   3.949  0.3854  0.1100  0.0135
  235W        W  242   1.999   5.001   1.430 -0.1775 -0.0063  0.0536
  236W        W  243   1.263   2.597   1.256 -0.1119  0.1044  0.1265
  237W        W  244   3.797   4.317   3.378 -0.1853 -0.0455 -0.0180
  238W        W  245   2.140   5.028   4.855 -0.0449  0.2129  0.1577
  239W        W  246   3.729   2.321   1.330  0.1688  0.1198  0.0528
  240W        W  247   3.467   1.915   2.117  0.1843  0.0798  0.2480
  241W        W  248   0.178   3.254   0.187 -0.0794  0.2857  0.3877
  242W        W  249   4.589   2.098   1.302 -0.1199  0.0530 -0.0243
  243W        W  250   1.415   4.082   3.710  0.1394  0.3713 -0.0749
  244W        W  251   1.353   3.784   0.605 -0.2019  0.2064 -0.0997
  245W        W  252   4.245   0.722   0.306  0.1470 -0.0776 -0.2056
  246W        W  253   2.833   2.145   0.854  0.1116 -0.0721 -0.0687
  247W        W  254   1.487   1.798   1.414 -0.2541 -0.0378  0.2887
  248W        W  255   4.507   4.877   1.200 -0.0020  0.1422 -0.0742
  249W        W  256   4.402   2.636   4.566 -0.3759 -0.1958  0.0031
  250W        W  257   1.513   1.556   4.204  0.0130 -0.2115  0.0106
  251W        W  258   4.509   0.108   1.940 -0.0236 -0.1805  0.0974
  252W        W  259   3.339   4.103   1.804  0.2462 -0.4725 -0.0247
  253W        W  260   2.331   3.428   1.075 -0.0022  0.1564 -0.2553
  254W        W  261   0.067   0.353   3.977  0.2278 -0.1201  0.1300
  255W        W  262   0.598   3.564   0.026 -0.1669  0.2759  0.1070
  256W        W  263   4.670   3.718   1.525  0.1957 -0.0554 -0.1217
  257W        W  264   4.759   4.293   1.459  0.0500  0.2228 -0.1891
  258W        W  265   4.355   2.878   1.627 -0.1240  0.2059  0.0595
  259W        W  266   0.262   3.826   0.398  0.1338  0.1117  0.0440
  260W        W  267   2.237   2.688   4.615 -0.2385 -0.0337 -0.1745
  261W        W  268   1.646   1.151   0.841  0.2683 -0.1988  0.1038
  262W        W  269   2.727   1.524   4.798  0.0379  0.1186  0.2866
  263W        W  270   0.068   4.305   0.551  0.1028  0.2679 -0.1269
  264W        W  271   1.577   3.135   0.371 -0.0853 -0.1295 -0.0530
  265W        W  272   3.370   2.908   0.797 -0.4729  0.2543  0.2950
  266W        W  273   0.016   0.069   1.029 -0.0265  0.1511 -0.0419
  267W        W  274   0.408   1.941   1.266  0.2338 -0.0267 -0.1027
  268W        W  275   2.913   0.656   1.046  0.0490 -0.3113 -0.3103
  269W        W  276   4.141   4.450   5.110 -0.2881 -0.0586 -0.1032
  270W        W  277   2.580   3.908   3.334  0.2910  0.0344  0.0258
  271W        W  278   3.938   3.319   3.498 -0.2910  0.1745  0.1022
  272W        W  279   0.260   4.270   3.897 -0.0848  0.0553 -0.0553
  273W        W  280   0.853   2.425   2.981  0.2371 -0.0848 -0.3678
  274W        W  281   0.421   4.485   0.181  0.2455  0.2254  0.1109
  275W        W  282   1.060   2.467   0.793 -0.1583 -0.2354  0.0343
  276W        W  283   3.002   2.146   0.333 -0.1795  0.0465  0.2852
  277W        W  284   2.925   4.421   4.764 -0.1311 -0.0505  0.1707
  278W        W  285   2.933   5.027   3.376  0.4757  0.2054  0.0953
  279W        W  286   0.299   2.951   3.871 -0.1446 -0.2600  0.5004
  280W        W  287   1.045   4.230   0.593 -0.1554 -0.1438 -0.1045
  281W        W  288   1.642   1.660   5.083 -0.2176  0.3328 -0.1917
  282W        W  289   4.299   4.163   1.592 -0.2495 -0.2532  0.2061
  283W        W  290   4.383   4.714   4.685 -0.0522 -0.0627 -0.2786
  284W        W  291   0.426   4.088   0.806  0.1523 -0.3236  0.1991
  285W        W  292   2.456   0.989   1.188 -0.2478  0.2201  0.3280
  286W        W  293   2.613   1.800   1.139  0.1219 -0.0133  0.0138
  287W        W  294   2.590   3.653   1.403 -0.3678 -0.1237 -0.1351
  288W        W  295   5.086   3.014   2.590 -0.1124  0.1445  0.0406
  289W        W  296   1.711   5.218   5.001  0.0838  0.1394  0.2411
  290W        W  297   1.598   4.465   1.568  0.0824 -0.2003 -0.0455
  291W        W  298   1.044   3.108   2.038 -0.0500 -0.0747 -0.1243
  292W        W  299   3.729   3.623   2.072  0.3070 -0.0078  0.1679
  293W        W  300   1.124   2.094   1.180  0.0377  0.4132  0.2673
  294W        W  301   3.145   2.877   1.646 -0.1395  0.1812  0.0077
  295W        W  302   5.066   1.310   5.167  0.1131  0.3096 -0.0340
  296W        W  303   0.333   1.234   0.247  0.2118 -0.2528  0.0409
  297W        W  304   4.430   1.190   0.672  0.4631  0.0690 -0.2485
  298W        W  305   3.969   1.828   4.715  0.1964 -0.0287  0.0155
  299W        W  306   4.515   4.572   1.935 -0.1037  0.1375  0.1511
  300W        W  307   2.073   0.053   3.936 -0.1222 -0.0682  0.1580
  301W        W  308   2.955   3.508   3.309 -0.0900 -0.1236 -0.1663
  302W        W  309   1.003   2.980   4.891  0.1037 -0.0963  0.2862
  303W        W  310   2.785   4.194   4.275 -0.0872 -0.0723 -0.3921
  304W        W  311   0.480   2.767   1.583 -0.0216 -0.1077  0.2650
  305W        W  312   0.593   4.235   3.506  0.2207 -0.1291  0.2595
  306W        W  313   0.277   4.958   2.794 -0.1333 -0.3069 -0.4077
  307W        W  314   4.938   4.919   4.843  0.2607 -0.1387  0.0569
  308W        W  315   2.577   0.084   4.603 -0.0405  0.0569  0.0572
  309W        W  316   4.760   3.183   2.226 -0.0546 -0.0374  0.1148
  310W        W  317   3.750   1.805   0.444 -0.1800  0.5008 -0.0412
  311W        W  318   2.384   2.799   0.134  0.0035  0.0563 -0.2877
  312W        W  319   1.239   3.399   4.575  0.0609 -0.2027 -0.0797
  313W        W  320   1.860   1.207   2.374 -0.0104  0.0069  0.3390
  314W        W  321   4.482   4.093   0.014 -0.0502 -0.1162 -0.1892
  315W        W  322   4.090   0.141   0.616  0.1234  0.2573 -0.1989
  316W        W  323   3.091   0.122   1.157 -0.1171  0.4589  0.0803
  317W        W  324   2.585   3.561   1.895 -0.5670  0.1575  0.1033
  318W        W  325   1.198   2.840   0.167 -0.0570  0.1630  0.1093
  319W        W  326   1.581   4.096   4.246  0.1906  0.0012 -0.0123
  320W        W  327   3.645   1.886   2.591 -0.1742 -0.2184 -0.1238
  321W        W  328   3.363   0.972   2.492  0.0294 -0.2465 -0.0239
  322W        W  329   4.835   4.314   3.896  0.1993 -0.3469  0.0996
  323W        W  330   1.282   1.501   0.433 -0.0135 -0.1475 -0.1995
  324W        W  331   3.588   5.169   4.683 -0.2496 -0.1065 -0.1729
  325W        W  332   0.956   2.713   2.542 -0.2879  0.0045  0.1856
  326W        W  333   4.030   1.534   1.203 -0.0357  0.0436  0.1912
  327W        W  334   4.671   3.952   1.960 -0.2928  0.3529 -0.0939
  328W        W  335   0.127   0.658   1.521  0.0157  0.2272  0.1474
  329W        W  336   4.108   4.817   2.129 -0.1270 -0.0061 -0.0372
  330W        W  337   2.214   1.397   0.886  0.0157  0.2523  0.1363
  331W        W  338   2.325   1.463   2.524  0.1038 -0.3030 -0.0794
  332W        W  339   3.001   3.696   0.693  0.1497  0.0146 -0.0445
  333W        W  340   5.027   3.653   3.098  0.0833 -0.4166 -0.2737
  334W        W  341   2.268   3.970   2.683 -0.0229  0.0856 -0.0042
  335W        W  342   2.935   0.679   0.554 -0.1143  0.0940  0.1875
  336W        W  343   0.893   0.562   4.127 -0.1359 -0.1480 -0.1218
  337W        W  344   2.735   1.216   4.243 -0.1153  0.1625  0.1037
  338W        W  345   0.183   4.503   3.019  0.0834 -0.0315  0.0680
  339W        W  346   1.502   4.841   2.679 -0.0593 -0.2351 -0.0143
  340W        W  347   4.003   5.245   4.420 -0.0515 -0.2445 -0.1447
  341W        W  348   3.748   0.545   0.472  0.2141 -0.0087 -0.0379
  342W        W  349   1.257   4.265   1.877 -0.2177 -0.1742 -0.1250
  343W        W  350   4.522   1.252   3.272 -0.0340  0.1901  0.0216
  344W        W  351   3.866   0.648   3.244  0.2190  0.1038 -0.1611
  345W        W  352   2.902   1.121   2.319  0.0347  0.1116 -0.0478
  346W        W  353   2.396   4.397   5.188  0.1394  0.0812  0.0669
  347W        W  354   0.222   1.044   4.883  0.3662 -0.1369  0.0736
  348W        W  355   0.760   0.145   1.159  0.2297  0.1192  0.0378
  349W        W  356   0.828   4.962   4.044  0.3096  0.3565 -0.0541
  350W        W  357   3.008   0.185   3.736  0.0249 -0.0738  0.0590
  351W        W  358   2.080   0.398   0.565 -0.1134  0.0673  0.1177
  352W        W  359   3.403   3.786   2.780  0.1523  0.2440  0.3638
  353W        W  360   4.136   1.739   0.749  0.5005 -0.2528 -0.0710
  354W        W  361   3.087   4.219   2.592 -0.0822 -0.0879 -0.2753
  355W        W  362   3.909   3.151   1.893 -0.1811  0.0431 -0.2782
  356W        W  363   3.570   4.264   4.095 -0.0945  0.0709 -0.2497
  357W        W  364   3.804   0.269   1.415  0.0257 -0.2178 -0.2384
  358W        W  365   3.249   2.984   4.531  0.0699  0.0966  0.1004
  359W        W  366   4.142   0.424   1.745 -0.2199  0.0821  0.1407
  360W        W  367   4.565   1.639   1.088 -0.1149 -0.1285 -0.0137
  361W        W  368   0.228   4.588   0.939 -0.2215 -0.2731 -0.1176
  362W        W  369   0.063   0.662   3.574  0.0980 -0.1586  0.1092
  363W        W  370   4.311   3.626   3.456 -0.2545 -0.2904 -0.0091
  364W        W  371   5.182   4.003   5.212 -0.0741 -0.1678 -0.0426
  365W        W  372   4.010   3.164   1.296 -0.2938 -0.2639 -0.0843
  366W        W  373   1.246   3.164   4.021 -0.0828  0.2240 -0.0236
  367W        W  374   4.781   2.985   0.788  0.2228 -0.0250 -0.3704
  368W        W  375   5.223   4.534   4.366 -0.1929  0.1007 -0.0320
  369W        W  376   2.404   0.459   2.529 -0.1227 -0.1037 -0.1732
  370W        W  377   1.624   1.650   3.137  0.2047 -0.1014  0.1337
  371W        W  378   0.720   4.762   2.549  0.0848 -0.3247  0.0356
  372W        W  379   3.292   0.533   1.438  0.0654  0.0740  0.1458
  373W        W  380   3.761   1.618   5.125 -0.1862  0.2042 -0.2836
  374W        W  381   0.945   0.267   2.190  0.1531  0.0045 -0.0609
  375W        W  382   3.525   4.286   4.622 -0.2587  0.0387 -0.1735
  376W        W  383   1.367   2.582   4.010  0.0928 -0.0617 -0.1062
  377W        W  384   4.745   0.191   5.095  0.2655  0.3033  0.0682
  378W        W  385   2.734   4.830   4.408 -0.1066 -0.2272 -0.0850
  379W        W  386   3.690   1.405   2.802  0.1204 -0.0227  0.0346
  380W        W  387   0.246   1.078   1.195  0.0366  0.1057 -0.2767
  381W        W  388   3.242   3.391   4.793 -0.0843  0.0474  0.2401
  382W        W  389   0.381   0.228   1.462 -0.0447 -0.3210  0.2982
  383W        W  390   2.158   2.581   1.555  0.0981  0.0121  0.1215
  384W        W  391   4.695   3.545   4.488 -0.3006  0.0048 -0.0858
  385W        W  392   3.845   1.365   4.599  0.3676  0.2138 -0.1050
  386W        W  393   1.189   4.335   4.153  0.1019 -0.0296 -0.3330
  387W        W  394   3.020   1.591   0.016  0.1781 -0.2603  0.2818
  388W        W  395   3.769   3.483   2.642  0.0447  0.1003  0.0330
  389W        W  396   4.935   1.071   1.299 -0.2848  0.1657 -0.2067
  390W        W  397   2.102   1.190   5.102  0.4876  0.1092 -0.0576
  391W        W  398   0.309   3.649   0.996  0.1237  0.1522 -0.0989
  392W        W  399   1.316   2.871   4.479 -0.2307  0.3729  0.1089
  393W        W  400   0.439   3.883   2.464 -0.2737 -0.3061 -0.0290
  394W        W  401   4.457   3.995   0.559 -0.1748 -0.2108  0.1970
  395W        W  402   2.581   1.227   1.640 -0.3642 -0.2330 -0.1416
  396W        W  403   0.677   3.144   2.571 -0.2209  0.0626  0.1528
  397W        W  404   1.859   1.762   1.785  0.0574  0.0964  0.0718
  398W        W  405   3.983   2.587   5.226 -0.0096 -0.2243  0.1359
  399W        W  406   3.968   0.742   4.434 -0.0783  0.0291 -0.0233
  400W        W  407   2.381   0.110   3.054 -0.0910 -0.1503 -0.0553
  401W        W  408   4.810   3.842   3.622  0.1377  0.2767 -0.3972
  402W        W  409   3.745   4.834   3.372  0.0917 -0.0387  0.4130
  403W        W  410   1.664   4.784   4.712  0.0595 -0.3575 -0.2170
  404W        W  411   3.139   2.442   3.426 -0.2174  0.0641  0.1300
  405W        W  412   1.196   3.523   1.808 -0.0396 -0.1527  0.0421
  406W        W  413   1.922   4.270   3.830 -0.0524  0.1066 -0.0620
  407W        W  414   3.869   3.660   0.519 -0.1479  0.2642  0.1388
  408W        W  415   1.546   2.620   1.732  0.1635  0.0616 -0.3295
  409W        W  416   3.944   0.844   3.864  0.3086 -0.4411 -0.0222
  410W        W  417   5.143   2.132   3.008 -0.0426  0.2722  0.0253
  411W        W  418   1.996   1.818   0.205  0.0356  0.1212  0.1065
  412W        W  419   4.315   3.028   2.130  0.0975  0.0602 -0.2862
  413W        W  420   3.971   1.669   4.195  0.0648  0.0042 -0.0675
  414W        W  421   3.554   3.038   3.421  0.0486 -0.0306  0.0971
  415W        W  422   4.576   2.776   0.110  0.1047  0.0120 -0.4117
  416W        W  423   3.844   2.846   0.991  0.0079  0.0499  0.1740
  417W        W  424   2.035   0.496   3.019 -0.2681  0.1027  0.2863
  418W        W  425   1.348   0.548   1.879 -0.3804  0.1729 -0.2400
  419W        W  426   3.099   1.869   3.654 -0.1747  0.0760  0.0433
  420W        W  427   5.198   5.133   4.344  0.0863  0.0923 -0.0871
  421W        W  428   4.765   0.347   2.312 -0.0002 -0.0144  0.1292
  422W        W  429   4.182   4.800   4.241 -0.0132  0.1274  0.2473
  423W        W  430   0.933   5.023   0.847 -0.0359  0.1748  0.0397
  424W        W  431   1.065   3.601   5.022  0.1593  0.2519  0.2761
  425W        W  432   0.816   1.123   3.200 -0.0591 -0.1611  0.1650
  426W        W  433   4.133   0.301   2.809 -0.3382 -0.3268  0.1231
  427W        W  434   1.322   1.685   1.869  0.3632 -0.1510  0.1779
  428W        W  435   1.914   3.746   1.370 -0.0511 -0.3705  0.0550
  429W        W  436   4.379   1.620   4.500  0.0305 -0.1019  0.1739
  430W        W  437   3.705   1.330   3.851 -0.0353  0.0397 -0.2428
  431W        W  438   4.741   0.604   4.605 -0.0462 -0.3830 -0.2229
  432W        W  439   4.708   2.730   1.221 -0.0860 -0.0985 -0.1414
  433W        W  440   0.738   4.840   1.281  0.0132 -0.1164 -0.1234
  434W        W  441   1.227   0.740   1.069 -0.0399 -0.0799 -0.1235
  435W        W  442   1.768   2.907   2.862 -0.0197 -0.2264 -0.1442
  436W        W  443   1.938   0.552   1.574 -0.0388  0.2456  0.0779
  437W        W  444   2.110   4.495   4.715  0.2430 -0.1144  0.2079
  438W        W  445   3.430   5.133   3.565  0.2913 -0.2472  0.0884
  439W        W  446   0.089   0.817   0.079  0.0033 -0.2107  0.0438
  440W        W  447   0.904   2.951   0.602 -0.1659 -0.0974  0.1757
  441W        W  448   0.893   0.698   3.548 -0.2722 -0.0825 -0.0638
  442W        W  449   0.525   5.202   2.439 -0.0969 -0.0265  0.1396
  443W        W  450   1.123   2.474   2.101 -0.2073  0.0709 -0.4336
  444W        W  451   2.938   3.859   3.724  0.2386  0.3297  0.1009
  445W        W  452   2.531   1.414   0.080  0.1840  0.0317  0.0899
  446W        W  453   3.542   4.551   1.427 -0.2038  0.1242 -0.1980
  447W        W  454   0.719   2.097   0.881  0.1881  0.2215  0.0543
  448W        W  455   2.313   4.549   2.802 -0.0963  0.0799 -0.2953
  449W        W  456   1.323   0.235   0.885  0.2952  0.2595  0.2138
  450W        W  457   1.472   1.505   2.361  0.1268  0.1194  0.1804
  451W        W  458   0.935   2.128   4.787  0.0784 -0.1740 -0.3914
  452W        W  459   0.725   3.614   2.831  0.1324 -0.0524  0.2728
  453W        W  460   3.023   1.359   2.760 -0.0201  0.1961 -0.1441
  454W        W  461   1.875   3.029   2.349  0.0355 -0.3254  0.0345
  455W        W  462   4.758   4.581   2.942  0.1971  0.1275  0.0473
  456W        W  463   2.882   2.136   3.067 -0.2241  0.0184  0.1351
  457W        W  464   4.553   0.660   1.222  0.0987  0.0459 -0.2520
  458W        W  465   1.989   0.025   2.299 -0.3185 -0.1762  0.1005
  459W        W  466   3.707   0.602   5.187 -0.1822  0.1129 -0.0964
  460W        W  467   1.658   1.966   2.681 -0.1197  0.1982  0.0901
  461W        W  468   0.664   1.761   5.221 -0.4693 -0.2758  0.2808
  462W        W  469   2.971   0.260   3.199  0.0370 -0.0735 -0.0060
  463W        W  470   3.244   0.852   1.967  0.0481  0.3565  0.0958
  464W        W  471   2.012   4.940   3.031  0.0586 -0.1306  0.1144
  465W        W  472   3.102   4.627   2.953 -0.0934 -0.1282 -0.1622
  466W        W  473   4.072   1.877   2.005  0.1993  0.0171 -0.0156
  467W        W  474   2.867   0.166   0.702 -0.1122 -0.2258  0.1819
  468W        W  475   4.234   4.933   3.568  0.2628 -0.4187 -0.0563
  469W        W  476   2.066   3.389   4.011 -0.3036  0.1496  0.0946
  470W        W  477   1.708   0.923   3.145  0.0093  0.0572  0.0808
  471W        W  478   4.318   4.205   2.241 -0.2374 -0.0497 -0.0340
  472W        W  479   2.402   1.934   2.264 -0.1601 -0.1067 -0.2458
  473W        W  480   0.772   4.487   2.035  0.1896 -0.2759  0.2702
  474W        W  481   1.607   2.281   1.320 -0.0814  0.1721  0.0403
  475W        W  482   0.447   0.416   4.257  0.0735  0.3813  0.2053
  476W        W  483   4.645   2.855   3.397  0.1350 -0.2169 -0.2510
  477W        W  484   3.623   2.700   4.373  0.1479  0.1454 -0.0415
  478W        W  485   1.939   4.913   1.926 -0.0314  0.1653  0.1492
  479W        W  486   1.819   4.514   0.339 -0.0017 -0.3579  0.1806
  480W        W  487   2.875   3.093   1.991  0.0784  0.0665 -0.0235
  481W        W  488   0.852   1.567   2.039  0.2597  0.0749 -0.1881
  482W        W  489   2.048   3.142   0.720  0.1243  0.0877 -0.0110
  483W        W  490   2.964   4.235   3.377  0.1796  0.0569  0.0879
  484W        W  491   4.727   0.859   2.973 -0.3926 -0.1356  0.1592
  485W        W  492   2.441   4.846   1.617 -0.0826  0.0169 -0.0922
  486W        W  493   5.024   0.712   0.993 -0.2592 -0.2407  0.2003
  487W        W  494   2.635   2.624   1.712 -0.0385 -0.0446  0.1159
  488W        W  495   0.760   3.319   1.008  0.1130  0.0352  0.2695
  489W        W  496   4.949   2.481   0.400 -0.0201 -0.2186 -0.1432
  490W        W  497   0.746   1.787   3.829  0.0643 -0.2615  0.0646
  491W        W  498   2.564   4.414   0.847  0.1446  0.0669  0.1210
  492W        W  499   4.432   1.038   4.567 -0.1968 -0.0208  0.0274
  493W        W  500   1.961   2.728   0.393  0.1219 -0.0172  0.0702
  494W        W  501   3.065   2.939   3.268 -0.1134  0.2464 -0.1703
  495W        W  502   3.155   4.777   1.149 -0.0248  0.1544 -0.1457
  496W        W  503   0.788   2.769   4.026 -0.3592 -0.1499 -0.1820
  497W        W  504   2.612   2.817   2.704  0.1689  0.1519  0.1650
  498W        W  505   3.443   0.332   4.475 -0.1560  0.1611 -0.1426
  499W        W  506   4.133   4.014   3.175  0.0820 -0.0383 -0.0528
  500W        W  507   0.602   1.756   2.480  0.1558  0.1375  0.0931
  501W        W  508   4.741   3.431   2.679 -0.0399 -0.3095  0.0571
  502W        W  509   1.610   0.230   3.252 -0.1999  0.0414  0.1059
  503W        W  510   3.679   3.173   4.524  0.1593  0.2168 -0.0345
  504W        W  511   1.300   1.000   0.422 -0.1239  0.0496  0.2398
  505W        W  512   1.868   2.553   3.318  0.1955  0.3813 -0.0524
  506W        W  513   2.193   4.175   0.407  0.1846 -0.1705  0.0420
  507W        W  514   2.048   3.166   0.158 -0.2649  0.0191 -0.0455
  508W        W  515   1.734   4.877   1.028 -0.1532 -0.2229 -0.2330
  509W        W  516   4.700   4.388   0.781 -0.0883 -0.3678  0.0384
  510W        W  517   2.114   3.416   2.072 -0.0369  0.0979  0.1707
  511W        W  518   4.600   2.424   1.780  0.2892 -0.0295  0.1543
  512W        W  519   3.767   4.105   2.894  0.1478  0.0940 -0.3711
  513W        W  520   4.500   2.087   0.755  0.1392  0.0479 -0.1388
  514W        W  521   2.488   2.472   5.002  0.0033  0.1549  0.0342
  515W        W  522   1.516   3.012   5.123  0.1028 -0.1367  0.3617
  516W        W  523   1.630   0.172   1.285 -0.0079  0.3970  0.4182
  517W        W  524   0.425   3.406   4.291 -0.3584  0.0909 -0.0014
  518W        W  525   5.041   1.479   3.140 -0.0348  0.2684  0.0661
  519W        W  526   2.545   4.719   3.967  0.1993 -0.0337 -0.0123
  520W        W  527   4.695   5.003   4.267 -0.0236  0.2917 -0.1694
  521W        W  528   2.684   3.196   5.197  0.2832  0.0216 -0.0295
  522W        W  529   3.541   1.137   4.995 -0.3867  0.0943  0.1602
  523W        W  530   2.984   0.781   2.958 -0.1945  0.3728  0.1382
  524W        W  531   3.995   2.868   4.762  0.0423 -0.0780  0.1062
  525W        W  532   0.768   5.198   1.592 -0.2442  0.2749 -0.0040
  526W        W  533   3.702   1.811   0.963 -0.4696 -0.0006  0.0895
  527W        W  534   4.634   1.545   0.109  0.0043  0.0043 -0.1200
  528W        W  535   3.091   1.973   4.567  0.0553  0.3754 -0.5252
  529W        W  536   0.100   1.072   4.375  0.2369 -0.3974  0.2496
  530W        W  537   1.545   0.568   0.580 -0.0507  0.0142  0.0847
  531W        W  538   3.918   4.049   4.888 -0.0732  0.0001 -0.3793
  532W        W  539   0.016   4.462   3.484 -0.1468 -0.0755 -0.2147
  533W        W  540   1.687   2.113   3.141  0.1188  0.2817 -0.0419
  534W        W  541   2.948   0.315   4.276 -0.0569 -0.0247 -0.2120
  535W        W  542   0.588   2.294   2.559  0.1594  0.2857  0.0920
  536W        W  543   2.128   2.306   4.311 -0.0052 -0.1181  0.0775
  537W        W  544   4.998   3.279   1.543 -0.3251  0.0930 -0.1824
  538W        W  545   3.256   3.782   1.220 -0.1527  0.1664  0.1765
  539W        W  546   4.675   0.549   1.788  0.1036 -0.2245 -0.0609
  540W        W  547   0.953   0.194   3.784  0.0488  0.0030 -0.3525
  541W        W  548   1.111   3.566   1.275 -0.4348 -0.3763 -0.0618
  542W        W  549   4.148   1.197   4.200 -0.1480 -0.1590 -0.0161
  543W        W  550   1.945   3.772   0.849  0.0267  0.1338 -0.1857
  544W        W  551   2.989   0.406   0.092  0.1325  0.2070 -0.1746
  545W        W  552   1.953   1.816   4.031 -0.1069  0.4337  0.1931
  546W        W  553   2.505   1.956   4.861  0.1626 -0.1259 -0.2364
  547W        W  554   1.159   1.711   5.137 -0.1714  0.2619  0.2560
  548W        W  555   2.981   5.084   4.996 -0.1354 -0.0200  0.0136
  549W        W  556   1.080   4.965   3.543 -0.0321 -0.4729 -0.0121
  550W        W  557   0.039   2.726   2.973 -0.3697 -0.1648 -0.1057
  551W        W  558   4.893   2.655   4.384 -0.2581  0.2651  0.1175
  552W        W  559   3.623   4.547   0.882  0.0706 -0.1002 -0.1855
  553W        W  560   3.341   0.121   1.747  0.2310  0.1289 -0.0970
  554W        W  561   4.090   3.621   4.493  0.1022  0.2229  0.0842
  555W        W  562   1.237   4.721   4.439  0.0305 -0.1800 -0.1307
  556W        W  563   1.956   3.960   4.708 -0.0837  0.0842  0.0326
  557W        W  564   0.424   1.371   4.556 -0.0033  0.1003  0.0988
  558W        W  565   3.302   0.479   0.790  0.4087 -0.0733 -0.0253
  559W        W  566   2.616   3.317   2.350  0.1918 -0.1684  0.0677
  560W        W  567   3.861   3.856   3.631  0.1278  0.0236  0.1745
  561W        W  568   4.321   5.244   4.855  0.1365 -0.0543  0.0725
  562W        W  569   2.948   1.029   0.174  0.0922 -0.2698  0.0317
  563W        W  570   4.641   5.232   3.762  0.3213 -0.1322  0.3317
  564W        W  571   1.734   0.415   4.091  0.0794 -0.2295 -0.1387
  565W        W  572   4.556   4.942   5.154 -0.3035  0.2942  0.0564
  566W        W  573   1.453   2.292   3.538 -0.0974 -0.0091 -0.0790
  567W        W  574   0.750   3.814   2.017  0.1667  0.2820 -0.0078
  568W        W  575   4.795   1.065   0.343  0.1033  0.0684 -0.4175
  569W        W  576   3.376   2.234   2.950 -0.3182  0.1680 -0.1776
  570W        W  577   0.641   3.461   0.503 -0.0375 -0.1271  0.0527
  571W        W  578   0.805   0.275   0.207  0.0065 -0.0145  0.0777
  572W        W  579   1.370   3.086   1.576  0.3624  0.0320 -0.3353
  573W        W  580   4.962   1.838   0.785  0.3101 -0.2011  0.1653
  574W        W  581   4.222   3.616   3.972 -0.3436  0.0258 -0.1461
  575W        W  582   1.356   4.326   3.290 -0.1840  0.4378  0.2860
  576W        W  583   2.881   0.439   1.696 -0.0187 -0.2402 -0.0703
  577W        W  584   0.757   1.481   0.383 -0.1673 -0.0472  0.1930
  578W        W  585   4.117   0.046   1.155 -0.0663  0.0965  0.3961
  579W        W  586   2.803   3.064   4.175  0.0197 -0.2456 -0.0970
  580W        W  587   0.533   4.745   1.685  0.0235  0.0674  0.1707
  581W        W  588   0.116   2.315   3.623  0.0364  0.0913 -0.1136
  582W        W  589   4.582   3.322   1.249  0.1645  0.0863 -0.3607
  583W        W  590   2.985   5.127   0.273 -0.2968  0.1831 -0.0199
  584W        W  591   1.380   2.483   3.006  0.0690 -0.2988  0.3547
  585W        W  592   1.782   3.045   4.642 -0.0740  0.1471  0.0860
  586W        W  593   0.743   4.967   0.222 -0.1123 -0.0408 -0.2812
  587W        W  594   1.944   3.727   2.387  0.2358 -0.1042  0.3782
  588W        W  595   2.445   3.915   0.059 -0.2645  0.0634 -0.1248
  589W        W  596   2.313   4.049   1.282  0.1571 -0.1760  0.0688
  590W        W  597   0.136   0.977   2.258  0.2019  0.1429  0.0259
  591W        W  598   1.771   3.516   3.293 -0.2197  0.0876  0.1385
  592W        W  599   4.025   0.845   1.588  0.0989  0.1655 -0.0139
  593W        W  600   3.491   3.895   0.707 -0.0498  0.1329  0.0675
  594W        W  601   3.347   1.946   0.072 -0.0644  0.0456  0.2588
  595W        W  602   3.327   5.158   0.790 -0.2200  0.1770  0.1731
  596W        W  603   4.620   2.288   4.159 -0.0137  0.1244 -0.1131
  597W        W  604   0.577   3.606   1.563 -0.0793  0.0555 -0.0937
  598W        W  605   3.364   3.933   5.028  0.1631 -0.1201  0.1339
  599W        W  606   3.247   1.250   4.474  0.1080  0.1255 -0.1195
  600W        W  607   4.727   0.921   2.198 -0.2005 -0.0339 -0.0297
  601W        W  608   4.466   4.110   4.764  0.2236 -0.2600  0.0530
  602W        W  609   2.933   3.058   0.442  0.4861 -0.1242  0.2124
  603W        W  610   4.840   0.088   4.620  0.0043 -0.3901 -0.1302
  604W        W  611   3.716   3.032   2.339  0.2716 -0.1497 -0.1170
  605W        W  612   2.673   1.785   3.383 -0.0253  0.1833  0.0210
  606W        W  613   2.584   1.021   0.578  0.0357 -0.1165  0.1387
  607W        W  614   1.542   2.512   2.441  0.1635 -0.2081 -0.3538
  608W        W  615   3.248   1.381   3.509  0.1219  0.3849  0.0566
  609W        W  616   2.259   3.559   0.361 -0.3801 -0.0661 -0.0298
  610W        W  617   2.466   5.147   0.462  0.1703 -0.2094  0.1739
  611W        W  618   0.156   0.250   3.282  0.1800  0.2636 -0.0849
  612W        W  619   4.738   1.977   1.815  0.1809  0.4291 -0.0271
  613W        W  620   0.141   1.851   1.798  0.3531  0.4094 -0.1316
  614W        W  621   3.888   4.728   4.780  0.2501  0.0725 -0.0973
  615W        W  622   2.060   4.804   2.412 -0.1103  0.1710  0.0460
  616W        W  623   2.484   4.143   4.752  0.0837 -0.2217 -0.0886
  617W        W  624   2.349   3.072   4.330  0.0522  0.0484 -0.1640
  618W        W  625   2.226   1.499   1.444  0.1088  0.1870  0.0497
  619W        W  626   5.016   3.641   1.142 -0.1263 -0.0642 -0.1778
  620W        W  627   3.115   5.141   4.512  0.2000 -0.0423 -0.0992
  621W        W  628   1.015   4.949   5.042 -0.0755  0.0947  0.1379
  622W        W  629   0.097   1.547   1.048 -0.2399  0.0576  0.3153
  623W        W  630   3.302   2.346   1.636  0.0743  0.0742 -0.0218
  624W        W  631   3.046   5.101   2.125  0.5240  0.5739  0.4579
  625W        W  632   3.128   4.212   0.723  0.3682  0.1816  0.2119
  626W        W  633   2.546   3.278   0.701  0.1904  0.1990  0.2127
  627W        W  634   3.793   1.519   2.349  0.0661  0.3923  0.0541
  628W        W  635   2.413   5.060   3.571  0.1700  0.2797  0.1021
  629W        W  636   3.687   1.441   1.827 -0.0971 -0.2238 -0.3945
  630W        W  637   3.015   4.231   2.144 -0.1515 -0.0465  0.0203
  631W        W  638   2.938   4.617   0.429  0.2076 -0.2497  0.0426
  632W        W  639   5.021   4.816   3.950 -0.1398  0.0768 -0.3424
  633W        W  640   0.641   0.279   2.900  0.0989  0.0511  0.2300
  634W        W  641   3.814   2.889   3.837 -0.0767  0.0879  0.0195
  635W        W  642   2.720   0.760   1.992 -0.0747 -0.1334  0.1645
  636W        W  643   0.220   3.099   4.763 -0.3165  0.0248 -0.0516
  637W        W  644   3.201   1.050   1.051  0.1050  0.1470  0.0886
  638W        W  645   2.795   4.647   1.869  0.1365  0.3902 -0.0100
  639W        W  646   3.520   1.723   4.378 -0.0524  0.1394 -0.0971
  640W        W  647   0.627   0.633   1.258 -0.2880 -0.4178 -0.0672
  641W        W  648   2.935   3.196   1.110 -0.1414  0.0912  0.2647
  642W        W  649   2.623   1.075   4.968 -0.2578 -0.2838  0.0688
  643W        W  650   1.778   0.613   4.648  0.2242  0.0510 -0.2513
  644W        W  651   0.796   0.437   1.690  0.2445 -0.0375 -0.2056
  645W        W  652   4.359   4.255   2.826 -0.1586 -0.2033  0.0361
  646W        W  653   4.572   1.633   0.565  0.3581  0.0413 -0.2184
  647W        W  654   2.886   1.144   3.297  0.0227  0.2138 -0.0201
  648W        W  655   0.612   1.114   2.275  0.1162  0.1495 -0.1734
  649W        W  656   2.601   4.439   1.421 -0.0906  0.2132  0.2266
  650W        W  657   3.864   2.297   2.842 -0.1772 -0.0214  0.2314
  651W        W  658   3.925   1.300   0.571 -0.0308  0.1319 -0.3130
  652W        W  659   3.198   1.660   3.092 -0.1844 -0.4279 -0.0674
  653W        W  660   3.758   0.312   3.620  0.2930  0.0956  0.1900
  654W        W  661   0.037   4.628   1.869  0.0434 -0.2197  0.0108
  655W        W  662   3.535   2.004   4.813  0.2279  0.0109 -0.0156
  656W        W  663   0.038   3.493   5.019 -0.0949 -0.1129  0.1155
  657W        W  664   1.149   5.081   1.298 -0.1088  0.1370 -0.1226
  658W        W  665   4.275   4.445   1.207 -0.2624  0.3426  0.0441
  659W        W  666   1.016   2.514   3.451 -0.0487 -0.2142 -0.2150
  660W        W  667   3.290   0.457   2.705  0.0959 -0.2111 -0.3413
  661W        W  668   2.965   0.894   1.521  0.2721  0.1965 -0.2630
  662W        W  669   0.374   3.185   1.334 -0.0126 -0.0321  0.3280
  663W        W  670   1.348   2.593   4.897  0.0284  0.0294 -0.0139
  664W        W  671   0.680   1.359   2.798 -0.0811  0.3239  0.0463
  665W        W  672   0.224   4.881   4.712  0.0333  0.1017  0.3088
  666W        W  673   4.667   3.558   0.716  0.3484  0.1168  0.0560
  667W        W  674   3.040   2.562   2.739 -0.1082  0.0277 -0.1736
  668W        W  675   5.002   0.367   1.383 -0.0914 -0.4351 -0.2115
  669W        W  676   1.576   1.660   3.671 -0.0994 -0.2905  0.1384
  670W        W  677   4.315   3.649   4.924 -0.0217  0.0998  0.1096
  671W        W  678   1.395   3.117   2.592  0.0664  0.1675 -0.2986
  672W        W  679   3.983   4.560   3.871  0.2360  0.3129  0.4514
  673W        W  680   1.548   3.451   2.227 -0.0741  0.2305 -0.1563
  674W        W  681   3.911   2.746   0.486  0.0529 -0.2611  0.0361
  675W        W  682   0.347   3.890   4.266  0.3250  0.0543  0.0240
  676W        W  683   0.359   0.522   4.818  0.3684 -0.1992  0.2865
  677W        W  684   5.060   2.964   5.202  0.5359 -0.1108  0.1094
  678W        W  685   3.642   0.554   1.820  0.0246  0.0200 -0.0952
  679W        W  686   4.954   0.717   4.123  0.0283  0.1334  0.0101
  680W        W  687   2.194   4.258   2.324 -0.0305 -0.2829  0.3478
  681W        W  688   0.474   0.169   1.977  0.0821 -0.1652 -0.0067
  682W        W  689   0.337   4.214   2.040 -0.0056 -0.0695  0.1107
  683W        W  690   1.856   3.251   1.210  0.0730 -0.5230  0.4416
  684W        W  691   1.897   0.538   3.533 -0.0347 -0.0742 -0.1227
  685W        W  692   4.123   1.319   1.719 -0.5744  0.0897  0.1593
  686W        W  693   0.464   0.692   3.243 -0.1461 -0.1093 -0.1715
  687W        W  694   2.300   0.867   3.381 -0.3917 -0.3363 -0.0233
  688W        W  695   0.840   2.781   1.208  0.0152  0.2386 -0.1447
  689W        W  696   4.628   3.678   0.237 -0.1989  0.2036 -0.1166
  690W        W  697   1.740   2.568   4.472  0.1733 -0.2097  0.0653
  691W        W  698   1.083   1.909   0.533  0.2982  0.0865 -0.3447
  692W        W  699   0.895   0.088   4.343 -0.0919  0.1230 -0.2219
  693W        W  700   3.392   2.471   3.844  0.3254 -0.0765 -0.0753
  694W        W  701   2.651   2.628   3.176 -0.1038 -0.1976 -0.2498
  695W        W  702   1.286   1.797   4.650 -0.0588  0.1558 -0.2954
  696W        W  703   5.011   5.087   0.079 -0.0720 -0.0544 -0.3038
  697W        W  704   3.242   2.423   4.683 -0.1749  0.0861  0.1914
  698W        W  705   3.984   2.721   2.633 -0.0868 -0.0268  0.1653
  699W        W  706   3.991   1.087   2.499 -0.5235  0.4306  0.0725
  700W        W  707   4.202   0.225   0.044 -0.0705  0.0067  0.0532
  701W        W  708   2.760   4.019   1.051 -0.0938  0.0374 -0.0336
  702W        W  709   1.377   1.121   2.042 -0.2267 -0.2091  0.0334
  703W        W  710   0.861   0.511   4.619  0.0673  0.0654  0.3245
  704W        W  711   3.485   1.437   0.831 -0.1157  0.0441  0.1203
  705W        W  712   1.227   0.912   4.087  0.0974 -0.0573 -0.0240
  706W        W  713   2.842   2.712   1.248 -0.0182  0.2000 -0.0198
  707W        W  714   2.689   2.245   3.548 -0.0122 -0.1729  0.1138
  708W        W  715   2.547   3.541   2.818 -0.0235 -0.2546  0.1006
  709W        W  716   3.879   2.080   0.008  0.1822 -0.1349  0.2316
  710W        W  717   0.277   3.939   2.968 -0.1426 -0.3006 -0.1195
  711W        W  718   1.199   0.363   1.383  0.0107  0.1059  0.2540
  712W        W  719   0.461   4.801   3.692 -0.0272  0.1341  0.1000
  713W        W  720   0.594   2.977   5.192 -0.1386  0.1192 -0.1196
  714W        W  721   1.008   2.719   1.676 -0.2871 -0.2075  0.2858
  715W        W  722   5.076   1.991   2.190  0.1009 -0.1393  0.1771
  716W        W  723   0.681   1.026   4.306 -0.1096 -0.1793  0.0538
  717W        W  724   0.879   3.787   0.777 -0.3648 -0.0433 -0.0206
  718W        W  725   4.059   1.775   3.644 -0.0702  0.0670 -0.3036
  719W        W  726   3.556   3.632   0.111  0.1371  0.1407  0.0317
  720W        W  727   3.031   3.895   4.654 -0.0072  0.1222  0.1040
  721W        W  728   3.210   5.227   2.651  0.2731  0.1100 -0.2220
  722W        W  729   0.557   4.724   5.041 -0.1028  0.0882  0.0467
  723W        W  730   2.984   0.289   4.798 -0.0687  0.0176 -0.3021
  724W        W  731   4.292   4.486   3.319 -0.3024  0.1856 -0.0343
  725W        W  732   1.446   3.857   1.506 -0.2692  0.0935  0.2923
  726W        W  733   5.166   1.098   2.811 -0.0569 -0.2295  0.4203
  727W        W  734   1.512   0.846   1.471 -0.2433 -0.1135  0.0848
  728W        W  735   4.240   2.551   1.254  0.1225  0.0198  0.3126
  729W        W  736   1.689   0.189   0.261 -0.1260  0.1810  0.1320
  730W        W  737   2.434   5.187   2.551 -0.2981  0.1043 -0.2125
  731W        W  738   0.156   1.857   3.815 -0.0254  0.1535  0.1183
  732W        W  739   4.995   4.588   1.173  0.1112  0.0169 -0.1994
  733W        W  740   3.400   1.352   0.253 -0.3986 -0.2456  0.0845
  734W        W  741   2.283   3.016   4.948 -0.0166 -0.0859 -0.0485
  735W        W  742   0.260   1.893   3.344  0.0701  0.1886 -0.0187
  736W        W  743   0.077   2.143   5.041  0.0793 -0.1578  0.0249
  737W        W  744   3.857   4.374   2.098  0.0630  0.2013  0.1145
  738W        W  745   0.393   2.836   4.371 -0.1538 -0.1242 -0.0412
  739W        W  746   2.903   2.656   0.112  0.1856  0.1044 -0.0248
  740W        W  747   4.697   0.956   5.010  0.0219 -0.0404  0.0037
  741W        W  748   2.106   5.235   0.081 -0.1220  0.4033  0.1938
  742W        W  749   0.337   2.343   3.108 -0.1328 -0.1815 -0.1456
  743W        W  750   2.703   2.808   4.701  0.0196 -0.1924 -0.0786
  744W        W  751   5.143   1.964   0.267 -0.0687 -0.0054 -0.1206
  745W        W  752   1.248   2.217   1.707  0.0233  0.0696 -0.0806
  746W        W  753   4.120   4.823   2.958 -0.0158 -0.2443  0.0878
  747W        W  754   4.113   3.651   1.389 -0.1139  0.5361 -0.2247
  748W        W  755   1.536   3.558   1.000  0.0945 -0.2032 -0.0562
  749W        W  756   5.228   2.805   1.415 -0.0696  0.2508  0.0484
  750W        W  757   0.023   3.186   2.134  0.1718  0.3365 -0.2761
  751W        W  758   4.755   0.487   3.671 -0.2758 -0.1353  0.1231
  752W        W  759   0.650   1.275   5.142  0.1643  0.0569  0.3843
  753W        W  760   3.909   0.335   4.829  0.2634 -0.0491 -0.2976
  754W        W  761   0.457   1.821   0.438  0.2674  0.1367  0.0075
  755W        W  762   1.426   0.756   2.490  0.2136 -0.1334 -0.0041
  756W        W  763   3.927   3.946   4.152 -0.2279 -0.3090 -0.1112
  757W        W  764   2.381   4.851   1.067 -0.1121 -0.1354  0.1112
  758W        W  765   4.698   1.372   1.836  0.1518 -0.1071 -0.3327
  759W        W  766   2.202   0.765   4.811  0.1815 -0.0000 -0.0771
  760W        W  767   1.018   4.452   3.719  0.1193 -0.0436  0.0166
  761W        W  768   1.951   2.646   2.033 -0.2948  0.0235  0.0563
  762W        W  769   0.014   2.834   3.459  0.2303  0.1079  0.2976
  763W        W  770   2.064   3.863   4.132  0.1659 -0.4912  0.1017
  764W        W  771   1.786   4.071   1.908 -0.1796  0.3284  0.0308
  765W        W  772   1.571   4.236   0.675 -0.0045  0.0162  0.2457
  766W        W  773   1.396   1.278   2.875  0.0595 -0.2192 -0.0069
  767W        W  774   2.473   3.836   0.696  0.0732 -0.2758  0.0200
  768W        W  775   0.643   4.672   0.606  0.0413 -0.1095 -0.1725
  769W        W  776   4.618   0.692   0.688 -0.0704 -0.0756  0.4130
  770W        W  777   0.887   4.514   0.069  0.0760 -0.0254 -0.0124
  771W        W  778   0.787   5.061   2.970  0.1070  0.3116  0.1668
  772W        W  779   2.177   4.928   4.353 -0.0338 -0.1885  0.2324
  773W        W  780   5.048   4.143   3.029 -0.0266  0.3986 -0.1844
  774W        W  781   4.168   1.657   0.236  0.3870  0.0501 -0.0488
  775W        W  782   4.304   1.974   5.039 -0.0057 -0.1614 -0.2461
  776W        W  783   1.737   3.502   1.772  0.0155  0.1250  0.1376
  777W        W  784   5.186   2.897   0.463 -0.0998  0.3033 -0.2309
  778W        W  785   1.942   1.369   2.859  0.1502 -0.1310  0.2391
  779W        W  786   2.525   2.627   4.192 -0.2394 -0.0151  0.0638
  780W        W  787   1.461   3.957   5.021 -0.2384  0.2243  0.3566
  781W        W  788   0.210   1.842   4.358  0.0033  0.1929 -0.0007
  782W        W  789   2.143   3.794   3.601  0.1701 -0.3728  0.1031
  783W        W  790   0.531   2.241   5.217  0.0878  0.1888  0.0700
  784W        W  791   0.261   0.775   4.028  0.1569 -0.5254 -0.0325
  785W        W  792   4.576   2.057   0.204 -0.2690 -0.0449  0.0206
  786W        W  793   1.540   4.519   5.151  0.0291  0.1881 -0.1156
  787W        W  794   0.290   1.127   3.117 -0.1777  0.1961  0.1192
  788W        W  795   4.588   3.053   4.211 -0.0673  0.2191 -0.0460
  789W        W  796   1.329   4.580   0.373  0.1278 -0.2070 -0.0754
  790W        W  797   2.714   0.227   2.203  0.2616  0.5788 -0.0483
  791W        W  798   4.236   4.739   0.779  0.2238  0.1095 -0.0778
  792W        W  799   0.067   3.422   3.955  0.0907 -0.0976 -0.1913
  793W        W  800   1.347   4.259   2.829  0.0700 -0.0590 -0.0871
  794W        W  801   5.086   4.728   2.542 -0.1479  0.2199 -0.3439
  795W        W  802   1.732   0.061   2.777 -0.2512  0.0888 -0.0667
  796W        W  803   4.127   2.910   4.240 -0.0833 -0.2532  0.0409
  797W        W  804   3.996   4.252   0.688  0.0960 -0.0628 -0.1557
  798W        W  805   0.425   2.546   4.845  0.0726 -0.1328 -0.0240
  799W        W  806   3.318   3.004   4.052 -0.0344  0.0956  0.2345
  800W        W  807   3.582   4.351   5.132  0.4305 -0.3367  0.1364
  801W        W  808   3.638   0.214   3.076  0.1238  0.0819  0.1937
  802W        W  809   1.774   1.858   4.548  0.3221 -0.0409 -0.1102
  803W        W  810   2.646   0.320   1.284 -0.0708  0.0845 -0.0877
  804W        W  811   4.941   4.894   3.386 -0.2809 -0.2144  0.0110
  805W        W  812   0.829   3.968   3.992 -0.2411 -0.0427  0.3463
  806W        W  813   2.886   2.032   2.108  0.1823  0.2191  0.1911
  807W        W  814   1.448   2.123   0.869  0.2941  0.0326  0.1088
  808W        W  815   0.847   3.184   1.550  0.1138 -0.1390 -0.0698
  809W        W  816   4.198   2.352   3.264 -0.0355 -0.1667 -0.0225
  810W        W  817   2.429   0.718   1.584  0.2644 -0.2417  0.0360
  811W        W  818   1.673   3.461   4.297  0.1423 -0.0136 -0.1403
  812W        W  819   5.243   4.144   1.675 -0.0521  0.0081 -0.2662
  813W        W  820   0.332   1.340   1.898  0.0888 -0.1213 -0.0442
  814W        W  821   3.237   1.533   3.989 -0.2857  0.0349  0.1336
  815W        W  822   0.868   1.015   4.798  0.1729 -0.5168 -0.0308
  816W        W  823   2.692   2.207   2.525 -0.2945 -0.1682  0.1136
  817W        W  824   4.318   1.301   2.220  0.1704 -0.2151 -0.5406
  818W        W  825   4.313   1.756   1.597 -0.2427 -0.1631  0.0156
  819W        W  826   2.236   3.927   1.763  0.0904  0.2870  0.2021
  820W        W  827   0.061   2.376   4.451  0.1712  0.1974  0.1192
  821W        W  828   2.424   3.776   4.435  0.3352  0.2400 -0.0383
  822W        W  829   4.256   3.299   2.613 -0.2326  0.2057 -0.0380
  823W        W  830   3.017   4.935   3.869 -0.2491 -0.0883  0.0616
  824W        W  831   1.557   2.461   0.225  0.2169  0.2483  0.0389
  825W        W  832   2.685   4.238   2.878 -0.1876  0.1257 -0.1702
  826W        W  833   4.175   1.470   4.939 -0.0024  0.3635 -0.1043
  827W        W  834   0.775   1.507   4.227  0.4086 -0.0428  0.2297
  828W        W  835   0.270   2.801   2.346  0.1801 -0.3208  0.2379
  829W        W  836   1.903   3.045   1.684 -0.1646 -0.0787 -0.1133
  830W        W  837   2.288   0.478   1.996  0.0988 -0.0235  0.1425
  831W        W  838   3.855   2.809   1.535 -0.1768  0.1861 -0.2416
  832W        W  839   2.830   4.886   0.804 -0.1140  0.0352  0.0281
  833W        W  840   0.667   2.147   3.461  0.1871  0.0451 -0.2751
  834W        W  841   3.069   3.419   1.567  0.4987  0.0943  0.2318
  835W        W  842   3.073   2.492   2.058 -0.0034 -0.2958 -0.0061
  836W        W  843   4.526   5.150   0.755  0.4523 -0.0149  0.2219
  837W        W  844   1.699   0.944   5.007  0.2181 -0.1540 -0.1499
  838W        W  845   3.099   3.678   1.994 -0.0966 -0.0679 -0.2003
  839W        W  846   4.937   1.019   4.597 -0.1695 -0.0497 -0.1989
  840W        W  847   1.031   0.653   5.139  0.0383  0.2500  0.3278
  841W        W  848   5.137   0.582   4.953 -0.1359  0.1641  0.2032
  842W        W  849   1.631   4.962   0.166  0.0271  0.0164  0.1810
  843W        W  850   2.821   2.218   1.386 -0.0775  0.3348 -0.0873
  844W        W  851   4.201   4.990   0.341 -0.3380 -0.5218 -0.0891
  845W        W  852   3.286   1.745   0.537  0.0482  0.0101 -0.1857
  846W        W  853   3.108   1.888   1.690  0.0002 -0.1148 -0.3333
  847W        W  854   1.275   5.145   4.160 -0.0230  0.2709  0.1493
  848W        W  855   3.695   0.200   0.943  0.2941 -0.0838 -0.0742
  849W        W  856   2.077   4.505   1.383  0.3086  0.1259  0.1954
  850W        W  857   2.617   0.095   5.194 -0.1544  0.1037 -0.2660
  851W        W  858   3.289   2.399   0.861  0.0969  0.0532 -0.0670
  852W        W  859   2.101   0.510   5.250  0.1115 -0.0088  0.3065
  853W        W  860   3.652   4.125   1.162  0.0318 -0.0186 -0.0021
  854W        W  861   1.870   2.410   2.754 -0.3962  0.3164 -0.1457
  855W        W  862   4.213   1.250   3.705  0.1049  0.2294  0.0625
  856W        W  863   3.141   1.038   3.845 -0.1176 -0.0150  0.2318
  857W        W  864   4.543   3.312   1.771  0.2862 -0.1925  0.0980
  858W        W  865   0.875   3.351   3.237  0.0938 -0.0668 -0.0548
  859W        W  866   0.300   2.294   1.670  0.2303 -0.1786  0.3216
  860W        W  867   2.285   2.283   1.908  0.0388  0.0764 -0.2442
  861W        W  868   3.917   3.611   3.127  0.2852  0.1726  0.2560
  862W        W  869   3.200   2.925   2.279  0.0002  0.0864  0.2397
  863W        W  870   4.156   1.883   3.058  0.0167 -0.2408  0.0328
  864W        W  871   4.423   1.153   1.147  0.0166  0.1333 -0.0970
  865W        W  872   3.635   1.607   3.366  0.1106 -0.1081  0.1166
  866W        W  873   0.648   1.947   1.728 -0.1597 -0.0951  0.1806
  867W        W  874   3.015   2.626   4.255  0.1841  0.1909 -0.2494
  868W        W  875   1.801   4.043   3.385  0.2344  0.1016  0.0035
  869W        W  876   3.305   3.439   4.266  0.3111 -0.0748 -0.2250
  870W        W  877   0.612   1.588   3.342 -0.0765 -0.3741  0.0226
  871W        W  878   3.422   3.740   3.284 -0.1277 -0.0283  0.2676
  872W        W  879   4.485   0.400   3.221 -0.0322  0.2683  0.0238
  873W        W  880   3.126   1.899   2.614 -0.1957  0.0615 -0.2684
  874W        W  881   4.367   2.384   2.743  0.1499  0.0691  0.0275
  875W        W  882   1.705   0.171   1.830 -0.1461 -0.1774 -0.1313
  876W        W  883   1.377   5.064   0.591  0.3078  0.0254  0.1567
  877W        W  884   4.225   1.850   2.533  0.0491 -0.0024  0.0030
  878W        W  885   3.381   4.819   0.341 -0.0659  0.2486 -0.2047
  879W        W  886   1.562   4.325   4.672 -0.2889 -0.2483  0.0900
  880W        W  887   4.936   3.335   0.337 -0.2249  0.1896  0.3309
  881W        W  888   1.431   3.206   3.119  0.0786  0.3876 -0.2379
  882W        W  889   4.913   4.063   4.315 -0.2318  0.0233  0.1311
  883W        W  890   3.712   0.086   0.150 -0.2055  0.0997  0.1689
  884W        W  891   3.948   4.085   0.211 -0.3648 -0.0460  0.1847
  885W        W  892   3.020   3.255   2.748 -0.0616  0.2402  0.0638
  886W        W  893   4.005   0.928   4.933  0.1117 -0.4870  0.0443
  887W        W  894   3.340   3.380   0.572 -0.1798  0.3412  0.0376
  888W        W  895   2.317   2.584   3.625  0.2673 -0.3257 -0.2637
  889W        W  896   3.206   0.337   2.208  0.1446  0.2122 -0.2843
  890W        W  897   2.171   4.483   1.847  0.0161  0.2230 -0.0190
  891W        W  898   0.632   4.177   4.505 -0.0153 -0.2365 -0.3000
  892W        W  899   0.854   2.563   5.080 -0.3321  0.1423 -0.0261
  893W        W  900   4.324   4.182   3.826 -0.2602 -0.2250  0.2086
  894W        W  901   1.080   2.267   0.156  0.1522  0.0720 -0.1949
  895W        W  902   5.180   1.484   0.477 -0.0297 -0.1160 -0.2300
  896W        W  903   1.134   4.109   4.533  0.0493 -0.1159 -0.1801
  897W        W  904   2.200   2.022   1.456 -0.0312 -0.2787  0.0119
  898W        W  905   0.518   1.003   1.606  0.0783 -0.2646 -0.0339
  899W        W  906   3.318   4.166   3.062 -0.0647 -0.0889 -0.1435
  900W        W  907   4.159   2.243   1.683  0.1787 -0.0154 -0.2396
  901W        W  908   2.918   4.173   5.175  0.0545 -0.1259  0.0024
  902W        W  909   4.514   0.161   1.415 -0.1819  0.0275 -0.0647
  903W        W  910   3.361   0.605   3.851  0.2661 -0.1775  0.1398
  904W        W  911   3.913   2.267   0.796 -0.0428  0.2049 -0.3392
  905W        W  912   3.585   3.595   1.592 -0.3819 -0.2755 -0.1191
  906W        W  913   5.215   4.771   0.453  0.0705 -0.0127 -0.1249
  907W        W  914   1.740   0.057   4.505  0.1389 -0.0805  0.2281
  908W        W  915   0.421   0.016   3.918  0.0493 -0.0066 -0.5577
  909W        W  916   5.017   1.916   3.491 -0.1609  0.3282  0.1914
  910W        W  917   3.135   0.774   4.288 -0.3019 -0.1449 -0.0728
  911W        W  918   0.948   0.139   4.905 -0.0228 -0.3246  0.0652
  912W        W  919   3.223   2.829   5.029  0.0448  0.0456  0.0817
  913W        W  920   5.007   3.544   1.942 -0.4137  0.0321  0.0096
  914W        W  921   4.656   2.862   4.898 -0.0924 -0.1381  0.3383
  915W        W  922   3.856   5.057   3.852 -0.1057  0.0586 -0.3492
  916W        W  923   1.786   2.225   1.816 -0.0023  0.2672  0.0547
  917W        W  924   4.879   4.100   0.358 -0.2041 -0.1084  0.3349
  918W        W  925   4.372   0.688   4.139  0.0163 -0.2878  0.0683
  919W        W  926   1.447   2.782   3.429  0.0211 -0.0194  0.2878
  920W        W  927   3.761   0.991   2.004  0.1785 -0.1017  0.0023
  921W        W  928   2.857   4.005   1.629 -0.1557 -0.3062  0.0082
  922W        W  929   3.471   5.129   1.306  0.0760  0.0235  0.1303
  923W        W  930   1.345   2.282   4.502 -0.2115  0.0780 -0.0239
  924W        W  931   2.385   3.032   3.816  0.0104 -0.3352  0.1173
  925W        W  932   0.829   1.536   4.720  0.1139  0.0891 -0.0269
  926W        W  933   4.329   3.213   4.652 -0.1421  0.2565  0.0822
  927W        W  934   0.033   4.195   2.557  0.3333  0.0120  0.1040
  928W        W  935   2.982   4.398   3.843 -0.2487 -0.0331  0.1793
  929W        W  936   0.654   3.322   4.808 -0.1407  0.1691  0.2252
  930W        W  937   1.645   0.895   3.830  0.2451 -0.1843  0.2503
  931W        W  938   4.229   3.100   5.243 -0.2154 -0.0431 -0.1492
  932W        W  939   2.885   0.640   2.479  0.0310  0.0764  0.2767
  933W        W  940   1.063   1.201   0.787  0.4314 -0.0415 -0.1477
  934W        W  941   3.388   3.535   3.749 -0.0556 -0.0181 -0.0322
  935W        W  942   1.361   1.320   4.865 -0.2083  0.0795 -0.0249
  936W        W  943   3.105   0.735   4.994 -0.2287 -0.1457  0.1485
  937W        W  944   2.753   3.534   0.315 -0.2525  0.1933 -0.3240
  938W        W  945   0.972   2.895   3.045 -0.1283  0.0249  0.1841
  939W        W  946   4.818   2.371   3.537 -0.3791  0.3567 -0.1978
  940W        W  947   1.482   2.940   2.086  0.0502 -0.1337  0.1875
  941W        W  948   0.740   0.971   0.354  0.2135 -0.0579 -0.1636
  942W        W  949   2.595   1.081   2.735 -0.0557  0.1746  0.1139
  943W        W  950   3.247   4.628   3.405  0.0517 -0.1603  0.2581
  944W        W  951   2.035   0.982   1.821 -0.0959 -0.1124 -0.2096
  945W        W  952   0.801   3.455   3.995 -0.1406 -0.2758  0.1681
  946W        W  953   2.378   1.880   4.398 -0.2722  0.0727 -0.0872
  947W        W  954   4.317   2.798   2.989  0.0329  0.1801  0.2992
  948W        W  955   0.983   3.827   3.505 -0.1725 -0.2846 -0.3005
  949W        W  956   1.421   0.222   2.311  0.1537 -0.0423 -0.1650
  950W        W  957   4.004   4.572   1.618 -0.1108  0.1641  0.1386
  951W        W  958   5.068   3.877   2.270 -0.1183  0.1095  0.1111
  952W        W  959   0.462   0.074   4.594  0.1614 -0.1617  0.0818
  953W        W  960   2.808   4.975   2.873  0.2824 -0.1895  0.1104
  954W        W  961   4.787   4.889   1.604  0.1799  0.2826  0.0411
  955W        W  962   3.111   4.648   5.200  0.2718 -0.2096  0.1085
  956W        W  963   2.609   5.215   4.076  0.2552  0.0204  0.0105
  957W        W  964   4.471   2.637   0.637 -0.0883  0.0323  0.1519
  958W        W  965   2.313   1.312   4.563  0.3070 -0.0198 -0.0292
  959W        W  966   5.245   2.685   0.906 -0.0720 -0.1671 -0.0891
  960W        W  967   1.081   0.814   1.625 -0.1098 -0.1816  0.2915
  961W        W  968   1.639   1.262   0.129  0.0436 -0.2943 -0.2849
  962W        W  969   1.624   1.049   4.318 -0.0533 -0.1280  0.2174
  963W        W  970   1.167   2.199   2.642 -0.2218  0.3329 -0.1166
  964W        W  971   3.420   4.161   3.610  0.2166 -0.1989  0.2271
  965W        W  972   2.804   1.727   4.187 -0.0227 -0.1050 -0.1809
  966W        W  973   4.902   4.400   4.811  0.0677  0.4361  0.1185
  967W        W  974   2.263   1.472   1.975  0.2155 -0.1485  0.1912
  968W        W  975   1.056   0.386   2.653 -0.3255  0.1461 -0.0293
  969W        W  976   3.632   4.586   2.944 -0.1387 -0.0749 -0.1259
  970W        W  977   4.528   4.685   3.835 -0.0125 -0.0100  0.2868
  971W        W  978   4.871   1.427   3.659 -0.3290 -0.1668 -0.1952
  972W        W  979   3.282   2.050   1.229  0.0286 -0.0196  0.2069
  973W        W  980   1.861   0.898   0.314 -0.0019 -0.1764 -0.1887
  974W        W  981   0.793   2.331   1.393  0.0153  0.1548 -0.2520
  975W        W  982   3.909   1.177   3.278 -0.1022  0.1535 -0.0115
  976W        W  983   4.789   3.468   3.962  0.1389  0.2318  0.1358
  977W        W  984   4.659   1.663   2.323 -0.0663 -0.0467  0.3773
  978W        W  985   4.265   0.370   2.285  0.1700  0.1731 -0.1646
  979W        W  986   0.006   4.577   5.128  0.2999 -0.0214 -0.0125
  980W        W  987   0.509   2.762   2.855  0.1125  0.0947 -0.0039
  981W        W  988   1.495   0.065   3.736  0.2479  0.0862 -0.3325
  982W        W  989   3.530   0.713   4.728  0.2304  0.0479 -0.1435
  983W        W  990   2.235   2.695   2.473  0.4377  0.2308 -0.0796
  984W        W  991   3.171   4.835   1.623  0.1961 -0.0352  0.3127
  985W        W  992   2.082   0.877   0.734 -0.1620  0.1025  0.0403
  986W        W  993   4.214   0.861   2.036 -0.0006 -0.1442  0.0932
  987W        W  994   3.779   1.104   1.126 -0.0029  0.0837 -0.0337
  988W        W  995   3.928   2.250   2.348 -0.0756  0.3748  0.3146
  989W        W  996   3.624   2.105   3.340  0.2115  0.2018 -0.2229
  990W        W  997   1.244   3.772   4.172  0.1639  0.1001  0.1663
  991W        W  998   1.953   3.708   5.150  0.1811  0.1797  0.5552
  992W        W  999   5.220   0.436   4.463  0.0533  0.1169  0.2218
  993W        W 1000   0.456   1.882   4.785  0.1624  0.0389  0.1252
  994W        W 1001   0.859   0.838   2.767 -0.0414 -0.4115  0.1801
  995W        W 1002   0.050   0.982   0.626 -0.2375  0.0145  0.1967
  996W        W 1003   0.542   0.713   5.227  0.0466  0.0348 -0.0838
  997W        W 1004   0.314   2.117   2.158 -0.2117 -0.0860 -0.4468
  998W        W 1005   5.069   5.055   2.928  0.0529  0.3085  0.2688
  999W        W 1006   2.345   2.262   2.867 -0.5382  0.0755  0.0762
 1000W        W 1007   2.336   4.665   0.459 -0.1309 -0.0328 -0.2902
 1001W        W 1008   1.837   2.461   3.876 -0.0368 -0.1951 -0.1707
 1002W        W 1009   4.216   3.798   1.894 -0.4216 -0.0471  0.1384
 1003W        W 1010   3.298   1.473   2.279 -0.0428  0.0862 -0.2386
 1004W        W 1011   3.852   4.657   0.261  0.2253  0.2203 -0.0438
 1005W        W 1012   2.073   2.181   4.782  0.3579  0.1190 -0.0409
 1006W        W 1013   0.005   0.030   4.813 -0.2733 -0.0982 -0.3529
 1007W        W 1014   4.118   2.466   4.117 -0.2737 -0.3737 -0.3248
 1008W        W 1015   4.956   3.020   3.780 -0.0962  0.1795  0.3095
 1009W        W 1016   2.620   4.886   0.031 -0.2244 -0.2297 -0.5495
 1010W        W 1017   0.741   0.814   0.830  0.2438 -0.1619  0.1826
 1011W        W 1018   4.386   3.185   3.744 -0.2435 -0.0808 -0.0449
 1012W        W 1019   0.657   4.479   4.125  0.0907 -0.0912 -0.0533
 1013W        W 1020   3.608   1.007   4.221  0.1731  0.0085  0.1231
 1014W        W 1021   0.739   3.911   1.190  0.0745  0.0360 -0.3608
 1015W        W 1022   3.891   0.124   2.075  0.0515 -0.1920  0.2042
 1016W        W 1023   4.735   2.305   4.694 -0.0005  0.2159  0.0124
 1017W        W 1024   4.184   2.317   0.380  0.0882 -0.0596 -0.1883
 1018W        W 1025   0.797   4.888   4.562  0.1619  0.4750  0.0774
 1019W        W 1026   1.357   0.403   4.391  0.2763 -0.0411  0.4571
 1020W        W 1027   0.102   3.652   1.496  0.3058  0.0156 -0.1017
 1021W        W 1028   3.737   1.891   1.570  0.0915 -0.4477  0.2390
 1022W        W 1029   1.756   3.886   0.341  0.1511 -0.1956 -0.1168
 1023W        W 1030   2.061   0.268   4.771 -0.3961  0.2802 -0.1242
 1024W        W 1031   4.861   2.417   5.155  0.0274 -0.0653 -0.0151
 1025W        W 1032   3.468   1.009   0.635  0.2042  0.2027  0.0105
 1026W        W 1033   3.089   1.276   1.857  0.3421  0.1272  0.0526
 1027W        W 1034   4.392   2.233   2.193  0.1019  0.2788 -0.1858
 1028W        W 1035   1.491   2.109   5.040  0.0837  0.0870 -0.0222
 1029W        W 1036   0.385   3.030   0.857 -0.1186  0.1444 -0.1482
 1030W        W 1037   2.920   3.812   2.964 -0.1318 -0.1389  0.4217
 1031W        W 1038   0.300   0.769   2.716  0.2567 -0.2581  0.0395
 1032W        W 1039   1.122   1.168   0.005  0.1189  0.0327  0.3720
 1033W        W 1040   5.247   4.971   1.432  0.3794 -0.1624  0.2707
 1034W        W 1041   4.647   4.455   4.319 -0.3530 -0.3277  0.1077
 1035W        W 1042   3.768   3.444   4.037  0.0822 -0.0058  0.3965
 1036W        W 1043   3.349   2.712   0.324 -0.1102 -0.0077  0.1582
 1037W        W 1044   2.124   1.640   4.970 -0.1575 -0.1183 -0.1346
 1038W        W 1045   1.882   5.074   3.544 -0.2529  0.1753  0.1218
 1039W        W 1046   4.262   2.140   4.473  0.1718  0.0248 -0.0916
 1040W        W 1047   3.476   4.699   3.832 -0.1858  0.1788  0.1227
 1041W        W 1048   1.789   4.462   2.999 -0.0726  0.0770 -0.0832
 1042W        W 1049   5.243   2.480   2.009  0.0497 -0.1133 -0.0141
 1043W        W 1050   1.705   3.185   3.714  0.0120 -0.0561  0.2445
 1044W        W 1051   4.990   3.195   4.648 -0.0611 -0.0910  0.0191
 1045W        W 1052   3.916   4.873   1.249  0.1290 -0.0470 -0.0747
 1046W        W 1053   0.912   4.056   3.081 -0.1190 -0.1455  0.1669
 1047W        W 1054   2.422   2.109   3.963 -0.1372  0.1986  0.0324
 1048W        W 1055   4.747   1.244   4.152 -0.0928  0.1875 -0.2381
 1049W        W 1056   0.518   1.508   1.410  0.0543  0.1918 -0.0345
 1050W        W 1057   4.541   5.163   3.108  0.0525 -0.1466  0.2380
 1051W        W 1058   2.339   2.960   1.967 -0.2952  0.1839 -0.1011
 1052W        W 1059   2.717   3.362   4.626  0.2157 -0.1828  0.0749
 1053W        W 1060   5.016   3.159   3.065  0.0041 -0.0791  0.0726
 1054W        W 1061   1.312   5.195   4.664  0.1580  0.0410 -0.0056
 1055W        W 1062   0.076   3.403   0.646  0.1477 -0.1614  0.2776
 1056W        W 1063   1.096   1.578   3.332  0.1509  0.0006  0.2610
 1057W        W 1064   0.266   4.600   2.344 -0.3932 -0.1244 -0.0838
 1058W        W 1065   3.790   2.617   3.189 -0.0235  0.1577  0.2183
 1059W        W 1066   2.285   0.092   1.582 -0.3139 -0.3382 -0.3895
 1060W        W 1067   2.567   4.234   2.014 -0.0069 -0.3700  0.3271
 1061W        W 1068   2.345   1.446   4.100 -0.2147  0.0942 -0.0100
 1062W        W 1069   4.623   3.939   3.193  0.0634  0.0629  0.1352
 1063W        W 1070   1.233   1.641   0.919 -0.5275 -0.0278 -0.2402
 1064W        W 1071   4.913   4.364   2.114  0.2155 -0.5465  0.0349
 1065W        W 1072   4.307   1.142   5.245  0.0348 -0.0789  0.0564
 1066W        W 1073   3.789   2.145   4.336 -0.1426 -0.2766 -0.0968
 1067W        W 1074   3.292   1.554   4.870 -0.1891 -0.3067  0.1982
 1068W        W 1075   5.056   1.020   3.318 -0.2268 -0.0412  0.2207
 1069W        W 1076   5.099   3.883   0.704  0.0079 -0.3385  0.2189
 1070W        W 1077   1.409   3.594   0.133 -0.2457 -0.2309 -0.1863
 1071W        W 1078   2.151   1.594   3.592 -0.1789 -0.2565 -0.1218
 1072W        W 1079   1.114   4.502   4.861 -0.0060  0.1185  0.4037
 1073W        W 1080   0.420   0.637   0.489  0.0837 -0.1952  0.0067
 1074W        W 1081   0.975   1.646   1.374  0.0345 -0.2243  0.4038
 1075W        W 1082   3.325   2.155   4.185  0.0521  0.3098  0.2983
 1076W        W 1083   3.370   0.004   4.056 -0.1764  0.0714  0.0516
 1077W        W 1084   0.186   1.992   2.630 -0.3167  0.1216 -0.3461
 1078W        W 1085   3.028   1.275   0.556  0.1439  0.2488  0.0769
 1079W        W 1086   2.601   4.553   2.363  0.0062 -0.1541  0.0514
 1080W        W 1087   4.503   1.719   3.387  0.0668 -0.1501 -0.0067
 1081W        W 1088   0.158   2.105   0.888  0.0827 -0.0406 -0.0721
 1082W        W 1089   5.212   5.157   2.413  0.1069  0.1770  0.0956
 1083W        W 1090   0.122   3.978   3.465  0.2465  0.0259 -0.0961
 1084W        W 1091   3.835   4.017   1.667  0.2522 -0.1854  0.0497
 1085W        W 1092   4.198   3.512   0.899  0.0247  0.2565  0.0334
 1086W        W 1093   4.464   1.679   3.941 -0.3116 -0.1758  0.1175
 1087W        W 1094   1.795   1.353   4.660 -0.1419 -0.1635  0.0072
 1088W        W 1095   4.847   1.868   4.386 -0.1449  0.2294  0.2567
 1089W        W 1096   2.743   1.286   0.999 -0.3159 -0.0027 -0.0253
 1090W        W 1097   4.791   4.490   0.051  0.3648  0.2606  0.0242
 1091W        W 1098   1.869   2.619   5.041  0.0507  0.0440  0.1451
 1092W        W 1099   4.894   2.345   0.929 -0.3373 -0.0705 -0.1389
 1093W        W 1100   3.338   3.373   2.357 -0.1042 -0.2660 -0.2568
 1094W        W 1101   2.284   4.322   4.271 -0.2374  0.0120  0.0667
 1095W        W 1102   2.232   2.909   1.184  0.3686 -0.2041 -0.1428
 1096W        W 1103   3.918   2.347   4.767 -0.0680  0.0128 -0.0476
 1097W        W 1104   4.085   3.619   0.087 -0.0045 -0.2618 -0.0586
 1098W        W 1105   0.122   5.055   1.988  0.1052  0.3891 -0.0167
 1099W        W 1106   3.432   3.277   1.228  0.3411  0.0419  0.1719
 1100W        W 1107   2.317   1.945   0.729 -0.1429 -0.2467 -0.1230
 1101W        W 1108   4.621   1.188   2.596 -0.0191 -0.0356 -0.0365
 1102W        W 1109   5.228   1.486   4.691 -0.3065 -0.0961 -0.0598
 1103W        W 1110   0.160   5.019   3.287 -0.0399  0.0962  0.2361
 1104W        W 1111   5.078   1.362   2.155  0.1128 -0.1015 -0.1623
 1105W        W 1112   3.335   0.168   0.405  0.3618 -0.1536 -0.2130
 1106W        W 1113   0.259   1.616   2.944  0.0383  0.0513 -0.1914
 1107W        W 1114   3.084   4.764   2.501  0.0750  0.1656 -0.0518
 1108W        W 1115   0.819   3.694   4.419 -0.1012  0.2246  0.1594
 1109W        W 1116   1.083   5.068   2.461  0.0475 -0.4747 -0.5375
 1110W        W 1117   1.726   4.298   2.520  0.2281 -0.0377  0.1941
 1111W        W 1118   4.705   2.058   2.586  0.2338 -0.0332 -0.0889
 1112W        W 1119   1.125   3.374   0.614  0.3861  0.1999 -0.1401
 1113W        W 1120   3.686   4.941   2.442  0.1071  0.1840 -0.1327
 1114W        W 1121   1.721   0.660   1.009  0.1112  0.0340  0.3813
 1115W        W 1122   2.528   0.428   0.305  0.0040 -0.3562 -0.1558
 1116W        W 1123   2.568   1.961   0.125 -0.0158 -0.1565  0.1492
 1117W        W 1124   4.898   3.826   4.833  0.1723 -0.1028  0.0459
 1118W        W 1125   3.516   2.565   2.488  0.0869 -0.0842  0.0034
 1119W        W 1126   5.172   3.582   4.482 -0.0929  0.3302 -0.0253
 1120W        W 1127   4.979   0.135   1.849  0.4777 -0.3062  0.0899
 1121W        W 1128   1.342   0.511   3.651 -0.0340 -0.1164 -0.2212
 1122W        W 1129   2.439   3.796   2.266 -0.0637  0.1746  0.2370
 1123W        W 1130   3.576   1.853   3.780  0.0696 -0.0129  0.1486
 1124W        W 1131   2.926   2.550   0.587  0.2273  0.1901  0.0506
 1125W        W 1132   4.764   0.287   0.915 -0.0492 -0.1852 -0.3037
 1126W        W 1133   0.463   5.223   5.094  0.0503 -0.1003 -0.1668
 1127W        W 1134   2.426   1.014   2.311 -0.0559  0.2547 -0.1818
 1128W        W 1135   0.396   1.029   3.610 -0.2196 -0.0583 -0.0649
 1129W        W 1136   5.244   0.502   2.001  0.2044 -0.3088  0.3408
 1130W        W 1137   1.290   3.635   2.758  0.2376  0.1240  0.0972
 1131W        W 1138   2.577   3.498   3.715 -0.3235 -0.2206 -0.3331
 1132W        W 1139   1.961   4.476   0.859  0.2037 -0.1084  0.1031
 1133W        W 1140   4.354   0.607   4.972 -0.3460  0.0919  0.2273
 1134W        W 1141   1.027   1.273   2.416 -0.0640 -0.1896  0.3888
 1135W        W 1142   2.777   1.573   2.344 -0.4419  0.0027 -0.1325
 1136W        W 1143   1.398   3.967   2.288  0.0453 -0.0254 -0.0124
 1137W        W 1144   1.776   3.923   2.892  0.2547  0.0800 -0.1388
 1138W        W 1145   0.862   1.113   1.244 -0.3153  0.5817 -0.0956
 1139W        W 1146   3.735   5.033   1.744 -0.0489 -0.0509  0.0285
 1140W        W 1147   0.990   0.763   2.170 -0.2648  0.0940  0.0441
 1141W        W 1148   0.602   2.579   0.823 -0.1795  0.1141  0.0329
 1142W        W 1149   3.192   3.955   4.135  0.0050  0.0490  0.0509
 1143W        W 1150   2.553   3.232   3.279  0.0230 -0.0429 -0.3408
 1144W        W 1151   2.087   2.256   0.039 -0.2398 -0.2314 -0.1884
 1145W        W 1152   1.228   4.047   1.023 -0.0440  0.0736 -0.2547
 1146W        W 1153   0.629   2.568   2.083 -0.1379 -0.3413 -0.1570
 1147W        W 1154   0.969   2.284   3.921  0.0797 -0.1224 -0.2314
 1148W        W 1155   2.179   2.717   2.959 -0.1517 -0.1950  0.0641
 1149W        W 1156   3.342   4.764   4.730 -0.1857  0.5118 -0.0355
 1150W        W 1157   0.987   2.002   2.200 -0.2723 -0.1062  0.0850
 1151W        W 1158   2.894   2.169   5.073 -0.0439 -0.1563 -0.1494
 1152W        W 1159   0.697   0.280   0.700 -0.1155 -0.0415  0.2365
 1153W        W 1160   4.642   0.981   3.777  0.3781 -0.0027 -0.0288
 1154W        W 1161   1.519   1.997   2.199  0.1566  0.3136 -0.1247
 1155W        W 1162   0.898   1.269   3.728  0.1473 -0.0271 -0.1211
 1156W        W 1163   2.041   3.513   4.650 -0.1974  0.1422 -0.0743
 1157W        W 1164   3.180   4.572   4.267 -0.0860  0.1704 -0.0433
 1158W        W 1165   2.490   0.295   3.541  0.0885  0.0409 -0.1016
 1159W        W 1166   2.481   4.973   2.077 -0.0520  0.0271  0.2436
 1160W        W 1167   0.043   4.050   4.672  0.0254  0.2211 -0.0393
 1161W        W 1168   1.819   1.541   1.142 -0.2982 -0.0533  0.1440
 1162W        W 1169   0.916   2.558   4.516  0.1507 -0.3400  0.2872
 1163W        W 1170   2.404   2.296   0.404  0.1957 -0.0969 -0.0295
 1164W        W 1171   1.161   0.062   1.755  0.1578  0.1907  0.1116
 1165W        W 1172   5.087   1.618   2.617 -0.1395  0.0747 -0.1067
 1166W        W 1173   4.823   0.268   2.808 -0.0967  0.1272 -0.0655
 1167W        W 1174   0.365   2.432   4.040 -0.0716 -0.3534 -0.2978
 1168W        W 1175   4.789   4.166   2.577 -0.2227 -0.1142 -0.0680
 1169W        W 1176   2.503   4.735   4.821 -0.1277 -0.2757  0.1967
 1170W        W 1177   0.618   2.592   0.305 -0.1053 -0.0547  0.1562
 1171W        W 1178   0.446   5.075   0.850  0.3258  0.3271 -0.0265
 1172W        W 1179   2.756   5.240   1.671  0.2088  0.2299 -0.0465
 1173W        W 1180   1.979   2.207   2.321 -0.0184 -0.1261 -0.0656
 1174W        W 1181   0.404   3.722   4.834  0.0632 -0.3244  0.3311
 1175W        W 1182   1.915   4.176   5.185  0.0163 -0.2675 -0.0288
 1176W        W 1183   0.989   1.275   1.676 -0.1642 -0.1971 -0.0778
 1177W        W 1184   4.770   2.553   2.970  0.0092 -0.0401  0.1626
 1178W        W 1185   2.084   1.343   0.392  0.0582 -0.0687 -0.1221
 1179W        W 1186   4.476   0.992   1.631  0.2033 -0.0171 -0.3049
 1180W        W 1187   1.614   3.459   4.875  0.0646 -0.0871 -0.2124
 1181W        W 1188   1.065   0.583   0.541  0.0526  0.0609  0.0724
 1182W        W 1189   2.453   1.419   3.182  0.2133  0.1830  0.2029
 1183W        W 1190   1.291   0.811   4.671 -0.2874  0.0711 -0.0182
 1184W        W 1191   4.198   0.902   2.914 -0.0301 -0.2047  0.0876
 1185W        W 1192   1.541   1.911   0.276  0.2211 -0.5718  0.1268
 1186W        W 1193   4.164   1.440   2.827 -0.2996 -0.0495 -0.2471
 1187ION     NA 1194   0.629   2.895   4.741 -0.0145 -0.1888  0.1442
 1188ION     NA 1195   0.154   1.716   2.268  0.3476 -0.2381 -0.6267
 1189ION     NA 1196   2.647   0.362   3.948 -0.1063 -0.1722  0.2925
 1190ION     NA 1197   3.591   3.821   3.961 -0.5589  0.0099 -0.1037
 1191ION     CL 1198   4.291   2.600   2.370 -0.6499 -0.0626 -0.6245
 1192ION     CL 1199   2.616   4.124   2.428 -0.1929  0.1325  0.0532
 1193ION     CL 1200   0.993   3.735   0.359  0.1731 -0.0486 -0.0017
 1194ION     CL 1201   0.460   1.737   2.079  0.5407  0.3692  0.3350
   5.25075   5.25075   5.25075
