one molecule in water
 1201
    1CER6   NOH    1   3.939   4.302   2.833 -0.2495  0.1076 -0.0158
    1CER6    OH    2   3.970   4.548   2.589  0.5185 -0.4143 -0.2646
    1CER6   GLA    3   3.962   4.088   3.048  0.3145 -0.2984  0.1542
    1CER6   GLB    4   3.760   4.337   2.577 -0.0648 -0.0203  0.0632
    1CER6   C1A    5   4.457   3.819   2.919 -0.1986  0.3057 -0.1378
    1CER6   C2A    6   4.872   3.701   2.621 -0.2593  0.3962 -0.0117
    1CER6   C1B    7   3.280   4.446   2.509  0.1216  0.2272 -0.0746
    1CER6   C2B    8   2.777   4.365   2.695  0.1229 -0.1179  0.1619
    2W        W    9   5.129   0.681   5.068 -0.1456 -0.0394  0.3446
    3W        W   10   1.279   1.405   3.139  0.2025 -0.1634  0.0645
    4W        W   11   0.658   4.596   1.097  0.1583  0.3173  0.1492
    5W        W   12   3.942   2.146   1.446 -0.0641  0.3567 -0.2503
    6W        W   13   1.761   1.332   1.303  0.1771 -0.1573 -0.0787
    7W        W   14   0.914   4.646   1.650  0.0111  0.0134  0.1330
    8W        W   15   0.853   1.861   1.894 -0.0507  0.1152  0.0793
    9W        W   16   1.847   5.125   1.387 -0.0602  0.0214  0.1334
   10W        W   17   4.161   1.886   0.554  0.0095 -0.0682 -0.1639
   11W        W   18   4.599   1.883   0.064  0.1889  0.1198  0.1145
   12W        W   19   4.362   0.822   1.475  0.0975 -0.0033  0.1381
   13W        W   20   1.456   3.277   0.615  0.1342  0.2285  0.1367
   14W        W   21   4.322   5.132   2.097 -0.0974  0.0130  0.1792
   15W        W   22   1.408   4.997   0.390  0.3170 -0.3844  0.0303
   16W        W   23   1.890   0.037   2.906  0.1747 -0.1073  0.1299
   17W        W   24   1.756   3.835   2.756  0.1167  0.1338  0.1295
   18W        W   25   4.088   4.410   3.385 -0.0212  0.0692  0.0360
   19W        W   26   1.631   1.737   3.077 -0.1357 -0.2775 -0.0032
   20W        W   27   2.762   0.732   0.433  0.1318  0.2383 -0.2206
   21W        W   28   0.990   3.892   0.895  0.3709  0.2937  0.2029
   22W        W   29   1.607   4.789   1.897  0.0207  0.2204  0.2359
   23W        W   30   0.221   4.088   4.358 -0.3236 -0.1672 -0.2306
   24W        W   31   2.034   4.339   3.178  0.3107 -0.2469  0.4866
   25W        W   32   3.182   3.359   1.239  0.0676 -0.1538 -0.2198
   26W        W   33   3.851   0.015   2.827 -0.0846 -0.3774 -0.4084
   27W        W   34   4.067   1.331   1.477 -0.1806  0.1685  0.1331
   28W        W   35   3.958   3.474   0.468 -0.2785 -0.0733 -0.0121
   29W        W   36   3.229   5.041   1.424  0.0224  0.2730  0.2293
   30W        W   37   3.784   2.519   2.395  0.0910  0.1016 -0.1158
   31W        W   38   3.262   3.297   1.757  0.0484  0.0749  0.0099
   32W        W   39   4.115   4.667   0.412 -0.0919 -0.0802  0.3004
   33W        W   40   3.665   5.254   2.336 -0.0358  0.1022 -0.0374
   34W        W   41   2.049   1.661   4.580 -0.0958  0.5392  0.2118
   35W        W   42   1.487   1.558   0.462 -0.1321  0.1105  0.2419
   36W        W   43   2.011   4.801   4.328 -0.0232 -0.1047  0.0285
   37W        W   44   0.202   3.026   0.412  0.2677 -0.0598  0.1137
   38W        W   45   2.319   1.159   1.674  0.2706 -0.2322 -0.1924
   39W        W   46   3.696   4.329   2.000  0.1186  0.0287 -0.0189
   40W        W   47   4.041   4.002   0.285  0.2302  0.2013  0.1876
   41W        W   48   3.791   0.583   3.066  0.1373  0.0400  0.0982
   42W        W   49   4.611   0.389   1.252 -0.2194 -0.0761  0.0539
   43W        W   50   4.961   1.376   1.988  0.1252  0.1057  0.0545
   44W        W   51   1.590   0.409   4.905  0.0288 -0.1834  0.3788
   45W        W   52   1.675   2.492   2.322 -0.0033 -0.3190  0.1274
   46W        W   53   1.991   3.258   0.241  0.0301  0.2479 -0.0073
   47W        W   54   2.731   0.109   0.305 -0.0583 -0.1649 -0.2312
   48W        W   55   4.068   2.410   0.558  0.3954 -0.1506  0.2271
   49W        W   56   1.743   5.185   2.230 -0.1238  0.0560  0.1910
   50W        W   57   0.196   4.462   2.679  0.1565  0.0480 -0.0463
   51W        W   58   5.200   4.410   2.243  0.1611 -0.2327 -0.1682
   52W        W   59   0.929   2.400   4.256 -0.1245  0.2959 -0.0177
   53W        W   60   0.563   1.595   4.538 -0.1489 -0.2835 -0.0521
   54W        W   61   0.146   3.507   3.357  0.1354 -0.4511  0.0812
   55W        W   62   1.439   0.789   3.656  0.1001 -0.1520 -0.1975
   56W        W   63   2.606   1.458   2.800  0.2053 -0.1568  0.2915
   57W        W   64   4.148   2.912   4.873 -0.2872  0.0275 -0.0629
   58W        W   65   4.254   4.266   2.445  0.2585 -0.1037 -0.3483
   59W        W   66   4.287   2.448   4.906 -0.0240  0.3342 -0.1160
   60W        W   67   2.348   4.386   0.929  0.2403 -0.2555  0.1144
   61W        W   68   0.799   1.005   4.256  0.2943  0.1288  0.1317
   62W        W   69   2.068   1.108   3.658 -0.1228  0.0972 -0.0755
   63W        W   70   2.792   1.996   3.722 -0.0193 -0.0416  0.0581
   64W        W   71   2.991   2.960   2.205  0.1444  0.0186  0.0245
   65W        W   72   2.469   3.665   3.958 -0.0524 -0.3071  0.0222
   66W        W   73   3.602   4.805   2.241  0.0365 -0.2350  0.1629
   67W        W   74   1.413   3.174   4.573 -0.2557 -0.0049  0.0467
   68W        W   75   1.087   1.265   2.134  0.1316 -0.0561 -0.4166
   69W        W   76   4.079   0.367   0.535 -0.1968 -0.2629  0.3242
   70W        W   77   4.470   3.329   4.374  0.1319 -0.0134  0.1109
   71W        W   78   0.296   3.556   4.370  0.1524  0.4131  0.1403
   72W        W   79   1.084   0.262   5.081 -0.1505 -0.2224  0.1208
   73W        W   80   4.467   3.667   0.423  0.1258 -0.2336  0.2992
   74W        W   81   3.213   3.448   3.100  0.3106  0.3234 -0.0711
   75W        W   82   3.980   3.336   4.644  0.1058 -0.0793 -0.0177
   76W        W   83   2.396   4.553   3.475  0.1742 -0.1836  0.0421
   77W        W   84   0.720   0.667   3.770  0.4972 -0.1172  0.1588
   78W        W   85   0.716   2.273   2.245  0.1917 -0.0689  0.0647
   79W        W   86   4.684   5.030   4.115 -0.2018 -0.4592 -0.1692
   80W        W   87   3.925   0.263   1.966  0.0262  0.1702  0.1655
   81W        W   88   3.564   4.985   0.157  0.1230  0.2014 -0.0644
   82W        W   89   4.158   0.756   4.362  0.0319 -0.0955  0.5600
   83W        W   90   3.027   1.199   2.823  0.1313 -0.2461  0.1815
   84W        W   91   3.507   3.625   2.718 -0.0776 -0.3445 -0.1894
   85W        W   92   2.135   1.152   4.126 -0.1717 -0.1433 -0.0211
   86W        W   93   0.223   4.865   3.850 -0.0817  0.1441  0.2978
   87W        W   94   1.055   5.141   1.757  0.0886 -0.2725  0.2295
   88W        W   95   0.049   0.283   1.884 -0.2516  0.0131  0.0225
   89W        W   96   0.300   1.777   3.806  0.3270 -0.1218 -0.0684
   90W        W   97   5.079   0.318   0.571 -0.2114 -0.2183  0.0234
   91W        W   98   3.226   3.922   3.941 -0.2744  0.1831 -0.0518
   92W        W   99   1.916   3.567   3.814 -0.1165  0.1746  0.1276
   93W        W  100   0.469   2.424   0.845  0.0797  0.1732  0.2172
   94W        W  101   4.306   4.493   0.828 -0.0716  0.0371 -0.1497
   95W        W  102   4.046   4.442   1.628  0.1384 -0.0097  0.0104
   96W        W  103   2.632   0.821   3.611 -0.0312  0.0701 -0.1689
   97W        W  104   3.687   5.168   1.153 -0.0211 -0.1190 -0.2432
   98W        W  105   1.085   3.856   5.086  0.0082 -0.3404  0.1154
   99W        W  106   4.637   0.795   5.184  0.5545  0.1378  0.0133
  100W        W  107   4.324   1.181   4.005 -0.0878 -0.1899  0.2130
  101W        W  108   3.554   2.585   4.259 -0.1285 -0.1137 -0.2348
  102W        W  109   1.357   1.658   1.329  0.0892 -0.1401  0.2059
  103W        W  110   1.544   1.163   0.848  0.1862  0.3027 -0.0820
  104W        W  111   1.322   2.033   1.652  0.0813 -0.0562  0.1466
  105W        W  112   0.575   1.945   3.427  0.2503  0.2267 -0.0285
  106W        W  113   3.349   3.004   3.174 -0.0093  0.0033 -0.0045
  107W        W  114   0.115   0.923   1.181 -0.4864  0.0018  0.1438
  108W        W  115   3.651   3.620   1.907 -0.4084 -0.1723 -0.2515
  109W        W  116   3.950   3.938   2.111 -0.3431  0.0605 -0.2718
  110W        W  117   5.083   4.293   3.076  0.1764 -0.0249  0.1793
  111W        W  118   0.633   0.488   4.283  0.0903  0.1273  0.0332
  112W        W  119   1.866   0.808   0.149 -0.2604 -0.0613 -0.1009
  113W        W  120   2.591   3.931   2.554  0.1682  0.1650  0.0483
  114W        W  121   0.839   3.126   1.151  0.0236  0.2202 -0.0976
  115W        W  122   4.299   2.152   3.837 -0.0133  0.1675  0.0618
  116W        W  123   3.064   2.190   2.941 -0.1655  0.2296 -0.2990
  117W        W  124   1.476   3.982   4.137  0.2972 -0.0776  0.0142
  118W        W  125   3.996   0.982   2.498  0.0753 -0.0151 -0.0436
  119W        W  126   4.618   1.367   1.350  0.0665 -0.2965  0.3624
  120W        W  127   3.991   1.697   0.966  0.1164 -0.3825 -0.3678
  121W        W  128   1.689   2.829   3.782  0.1071 -0.0943 -0.1424
  122W        W  129   3.800   0.863   1.038  0.0024  0.1558  0.3225
  123W        W  130   4.241   3.865   3.368 -0.1176  0.4169  0.2696
  124W        W  131   5.257   2.512   3.189  0.2378  0.3390 -0.1215
  125W        W  132   3.270   1.614   4.666  0.0218 -0.1288  0.3061
  126W        W  133   0.710   4.681   0.355 -0.0336 -0.0176  0.2449
  127W        W  134   4.237   2.211   0.079 -0.0907  0.5654 -0.3713
  128W        W  135   5.143   2.879   1.430  0.1604 -0.3107 -0.0472
  129W        W  136   2.549   4.643   2.174  0.3404 -0.0460  0.0589
  130W        W  137   1.809   4.514   4.999 -0.1220 -0.1477 -0.0172
  131W        W  138   3.312   4.992   3.150  0.1448 -0.2160 -0.4981
  132W        W  139   5.153   0.188   4.570 -0.2279 -0.1652  0.2755
  133W        W  140   3.451   0.036   4.656  0.3084 -0.0470 -0.1838
  134W        W  141   1.906   4.797   2.994  0.2477  0.4879  0.1060
  135W        W  142   2.044   2.154   4.430 -0.0859 -0.0780 -0.3113
  136W        W  143   2.087   3.639   1.387 -0.0737 -0.3014 -0.0585
  137W        W  144   3.690   0.502   1.358 -0.3684  0.0430 -0.1806
  138W        W  145   3.411   2.376   4.840  0.0348 -0.0071  0.1108
  139W        W  146   0.792   0.985   2.949 -0.2775  0.0286 -0.2220
  140W        W  147   4.888   0.010   1.942  0.0458 -0.2522 -0.2515
  141W        W  148   3.207   0.044   2.708 -0.1297  0.1039 -0.1283
  142W        W  149   4.021   1.194   1.952  0.5877  0.1269  0.2070
  143W        W  150   4.881   2.335   2.917  0.0163  0.1866 -0.2661
  144W        W  151   3.857   2.618   3.266  0.1344  0.3288  0.0214
  145W        W  152   2.235   1.823   1.786 -0.2919 -0.1021  0.0376
  146W        W  153   1.156   2.664   4.702 -0.0786 -0.3123 -0.0879
  147W        W  154   0.691   4.527   2.741  0.2253  0.1826 -0.0714
  148W        W  155   4.774   0.569   4.687 -0.1150 -0.3206  0.0292
  149W        W  156   3.326   0.902   1.350  0.0516  0.1951 -0.1369
  150W        W  157   3.672   0.853   2.134  0.1477  0.1612  0.0786
  151W        W  158   2.169   3.007   4.627 -0.0118 -0.2637  0.2666
  152W        W  159   4.948   1.248   0.424 -0.0948 -0.0931 -0.0895
  153W        W  160   2.928   3.836   4.295 -0.1423  0.0844  0.1383
  154W        W  161   3.257   1.915   3.393  0.0047 -0.0342 -0.2308
  155W        W  162   0.968   0.765   1.346  0.0700  0.1148  0.1259
  156W        W  163   4.957   1.057   1.627  0.0263 -0.0392  0.2602
  157W        W  164   2.464   1.739   0.814 -0.1025  0.0776 -0.5048
  158W        W  165   2.518   0.075   1.184 -0.0425 -0.4106  0.0804
  159W        W  166   2.546   0.281   0.751 -0.0796  0.0844 -0.1790
  160W        W  167   1.671   1.899   4.834 -0.0530 -0.0863  0.1427
  161W        W  168   5.124   1.587   4.235 -0.3666  0.0094  0.2996
  162W        W  169   5.045   3.770   2.088 -0.0772  0.1708  0.1770
  163W        W  170   2.166   0.588   5.070 -0.0365  0.1492  0.1177
  164W        W  171   2.020   1.487   0.766 -0.2832  0.5044  0.0590
  165W        W  172   0.228   3.820   3.924  0.1964  0.2307  0.0773
  166W        W  173   0.893   3.520   2.732  0.0115  0.1440  0.3591
  167W        W  174   2.822   4.884   3.056  0.1470 -0.2695 -0.1321
  168W        W  175   1.431   3.539   3.074 -0.3243  0.1234  0.3123
  169W        W  176   2.950   3.124   3.430  0.2444  0.0066  0.1191
  170W        W  177   0.500   2.577   4.402  0.1272  0.0672  0.2249
  171W        W  178   3.917   4.053   5.061  0.2034  0.0832 -0.0262
  172W        W  179   2.675   2.880   4.645  0.0068  0.1632 -0.3333
  173W        W  180   3.128   0.619   2.988  0.0111 -0.2692 -0.0633
  174W        W  181   2.564   4.468   4.537  0.0841 -0.1164 -0.2228
  175W        W  182   0.438   2.714   1.203 -0.0996 -0.2666 -0.1620
  176W        W  183   2.234   2.789   3.711  0.0478  0.0064 -0.0156
  177W        W  184   1.246   2.549   3.151 -0.1751  0.2114  0.2562
  178W        W  185   1.014   4.542   5.220 -0.1056  0.0146  0.0687
  179W        W  186   4.605   3.588   1.810 -0.2125 -0.1679 -0.0597
  180W        W  187   2.047   4.375   4.474 -0.0484 -0.3537 -0.1941
  181W        W  188   0.861   2.488   3.654 -0.0677 -0.1289 -0.0624
  182W        W  189   4.924   4.318   5.116 -0.1904  0.3361  0.2213
  183W        W  190   3.093   4.894   4.841 -0.1501  0.1391 -0.1608
  184W        W  191   1.720   4.116   0.030 -0.1226 -0.0442  0.1120
  185W        W  192   0.472   3.969   1.386 -0.0672  0.2738  0.0903
  186W        W  193   2.662   1.975   1.564  0.0223  0.2126 -0.1447
  187W        W  194   3.965   1.717   5.263  0.2612  0.0174 -0.1960
  188W        W  195   1.616   0.450   2.089  0.1790 -0.1229 -0.1989
  189W        W  196   4.033   1.241   0.713  0.3101 -0.1808  0.0516
  190W        W  197   3.236   1.832   3.883  0.1292  0.0995  0.0220
  191W        W  198   1.278   1.190   1.282  0.0895 -0.0235 -0.3362
  192W        W  199   4.233   0.620   3.364 -0.2584 -0.1639 -0.2022
  193W        W  200   0.640   0.238   1.186 -0.1969 -0.3148  0.1215
  194W        W  201   1.621   0.670   0.574  0.0321  0.0998 -0.2335
  195W        W  202   0.630   0.193   3.220  0.0406  0.0155  0.0200
  196W        W  203   0.427   0.294   3.678 -0.0515  0.2380  0.0689
  197W        W  204   2.528   2.229   3.121 -0.1278 -0.2403 -0.0086
  198W        W  205   3.414   0.062   0.728  0.1585 -0.1100  0.1325
  199W        W  206   4.062   0.409   2.515 -0.4547  0.0044 -0.2409
  200W        W  207   2.253   2.196   4.961 -0.2392 -0.0870 -0.0839
  201W        W  208   4.075   2.426   2.864 -0.1169  0.1108  0.2902
  202W        W  209   3.344   3.344   3.971 -0.0674 -0.0564 -0.2853
  203W        W  210   2.419   2.472   4.511  0.1067 -0.0533  0.1228
  204W        W  211   0.297   2.669   0.024 -0.0697 -0.2005  0.0789
  205W        W  212   0.309   1.114   0.797  0.2697  0.0155 -0.0254
  206W        W  213   4.221   0.595   0.959  0.0989 -0.1637 -0.2954
  207W        W  214   3.604   2.964   2.470 -0.2175 -0.2265 -0.1397
  208W        W  215   3.598   2.708   0.145 -0.0853 -0.0551  0.0343
  209W        W  216   4.231   2.420   2.393  0.0140 -0.0051  0.2168
  210W        W  217   3.001   0.619   1.557 -0.3392  0.1424  0.1989
  211W        W  218   4.688   2.406   5.250  0.3275  0.0641 -0.0412
  212W        W  219   5.172   2.332   5.057 -0.1459 -0.0622 -0.1475
  213W        W  220   4.856   5.140   0.425 -0.0810 -0.1247 -0.4439
  214W        W  221   3.531   0.708   4.045 -0.1622 -0.2134 -0.1308
  215W        W  222   0.428   4.277   2.338  0.0219  0.1623  0.0795
  216W        W  223   3.358   3.450   2.312  0.0613  0.1446  0.1374
  217W        W  224   0.290   0.841   4.060 -0.1217 -0.2028 -0.2508
  218W        W  225   0.313   2.156   0.144  0.3065 -0.1370  0.0442
  219W        W  226   4.885   4.542   2.619 -0.3234 -0.1138 -0.0289
  220W        W  227   1.336   2.674   1.409 -0.0638  0.1330 -0.0096
  221W        W  228   0.277   1.417   1.217 -0.0012 -0.0173 -0.1871
  222W        W  229   4.549   2.659   2.712  0.1992 -0.3386 -0.1496
  223W        W  230   0.039   4.022   3.449  0.2426  0.4109 -0.1370
  224W        W  231   5.261   0.856   2.020  0.0964 -0.1581  0.1837
  225W        W  232   1.228   4.205   0.287  0.3456  0.0160 -0.2418
  226W        W  233   0.739   3.370   4.100 -0.1664 -0.0302  0.0524
  227W        W  234   2.934   2.467   0.421  0.1909  0.2526  0.1805
  228W        W  235   5.048   0.928   0.783 -0.2336  0.2409  0.1692
  229W        W  236   0.180   2.069   3.101 -0.1612  0.1238  0.0971
  230W        W  237   4.919   5.201   3.301 -0.0334 -0.1483  0.1813
  231W        W  238   3.563   4.859   0.691 -0.0989 -0.0380 -0.0706
  232W        W  239   3.667   2.071   3.849 -0.2204  0.2252  0.0961
  233W        W  240   3.282   5.058   1.973 -0.4102 -0.0798  0.1741
  234W        W  241   4.398   4.634   1.323  0.0483 -0.1865  0.2344
  235W        W  242   0.241   3.221   1.515 -0.1509 -0.0210  0.4890
  236W        W  243   3.558   3.058   4.455  0.1479  0.0192 -0.2200
  237W        W  244   0.115   3.447   0.669 -0.1954  0.2774 -0.0111
  238W        W  245   2.528   2.764   3.287 -0.0611 -0.2021 -0.1696
  239W        W  246   4.631   0.691   0.684  0.2890 -0.1858  0.1064
  240W        W  247   2.218   4.355   2.540 -0.0167  0.1352 -0.4022
  241W        W  248   3.483   2.413   3.515  0.2147  0.1633  0.3251
  242W        W  249   0.943   4.079   3.849 -0.0737  0.2279  0.3611
  243W        W  250   1.204   0.488   4.606 -0.1927 -0.0465 -0.0383
  244W        W  251   1.381   0.920   4.503  0.0092 -0.0219  0.0237
  245W        W  252   2.153   3.869   2.347 -0.1312  0.0749 -0.1155
  246W        W  253   1.852   4.618   1.503  0.0965  0.0841 -0.2198
  247W        W  254   4.066   5.160   4.513 -0.2226  0.2170  0.3028
  248W        W  255   3.957   4.785   3.074  0.1373 -0.3588  0.3024
  249W        W  256   2.670   2.032   0.280 -0.5750  0.0530  0.1809
  250W        W  257   4.592   0.689   4.174  0.2499  0.1680  0.1267
  251W        W  258   3.002   1.989   4.736 -0.2044 -0.0200 -0.0656
  252W        W  259   4.920   2.985   4.611  0.4196  0.3335 -0.1057
  253W        W  260   4.676   0.432   3.252 -0.0033 -0.1613 -0.1742
  254W        W  261   3.438   4.178   4.386  0.0457  0.1979 -0.3807
  255W        W  262   3.163   1.917   0.393  0.0620 -0.1418 -0.0741
  256W        W  263   0.144   1.579   0.751  0.1268 -0.3032  0.0263
  257W        W  264   1.597   2.966   4.979 -0.0648  0.0167  0.0696
  258W        W  265   1.817   0.911   4.846 -0.2634  0.0916 -0.1004
  259W        W  266   0.294   3.704   2.169 -0.1754  0.1009  0.1944
  260W        W  267   0.838   2.282   4.781 -0.0770  0.0726  0.2517
  261W        W  268   5.224   1.799   2.143 -0.0213  0.0093 -0.2681
  262W        W  269   1.608   1.317   2.587 -0.0369  0.2015 -0.0102
  263W        W  270   2.549   2.859   0.229 -0.0239 -0.1785 -0.2785
  264W        W  271   1.930   2.310   0.921 -0.0536  0.0613 -0.0561
  265W        W  272   1.284   0.607   1.697 -0.3482 -0.2676  0.1214
  266W        W  273   2.469   2.387   3.620 -0.0042 -0.0590  0.1740
  267W        W  274   3.780   3.049   3.976  0.0352 -0.0412  0.0715
  268W        W  275   4.258   3.192   3.945  0.0908 -0.0030 -0.1209
  269W        W  276   4.353   2.512   3.234  0.1229 -0.3965  0.0596
  270W        W  277   1.251   5.214   4.733  0.0953  0.4097 -0.2450
  271W        W  278   4.124   1.663   3.290 -0.1391  0.0342 -0.0600
  272W        W  279   1.680   3.512   4.342  0.1573 -0.0590 -0.3697
  273W        W  280   3.529   1.174   0.680 -0.1908 -0.1292 -0.1386
  274W        W  281   4.261   4.018   0.690 -0.1837 -0.1769 -0.2879
  275W        W  282   0.699   3.037   3.556  0.0306 -0.0184  0.1075
  276W        W  283   2.883   1.628   0.649 -0.3700  0.0970 -0.0492
  277W        W  284   4.534   2.745   0.388  0.3336  0.1794  0.1141
  278W        W  285   0.905   2.000   2.731  0.3861 -0.0502 -0.3327
  279W        W  286   3.002   1.125   0.551  0.1480 -0.1436 -0.2425
  280W        W  287   1.557   3.828   3.617  0.2331  0.1477 -0.2245
  281W        W  288   4.675   4.084   0.920 -0.0664 -0.0171  0.3682
  282W        W  289   4.877   3.151   0.461  0.1535 -0.2742 -0.2368
  283W        W  290   3.190   4.270   3.478 -0.1425  0.0955  0.1791
  284W        W  291   0.438   2.730   2.214  0.2098  0.4378 -0.0824
  285W        W  292   1.985   0.599   3.022  0.1602 -0.0282 -0.0681
  286W        W  293   2.842   3.246   3.983  0.0636 -0.0474  0.2741
  287W        W  294   3.697   4.492   4.043 -0.2810 -0.1986  0.0281
  288W        W  295   3.837   3.094   1.992  0.0411  0.1417  0.0614
  289W        W  296   4.088   3.083   1.136 -0.1791 -0.1220  0.3789
  290W        W  297   0.332   4.985   4.575 -0.1972  0.0374 -0.4021
  291W        W  298   4.495   1.176   4.476  0.1029 -0.3092 -0.0536
  292W        W  299   4.196   2.147   1.002  0.1291  0.1188 -0.0243
  293W        W  300   1.568   1.189   5.258 -0.0307 -0.1769 -0.1991
  294W        W  301   1.017   4.965   2.668 -0.0057 -0.0786 -0.1531
  295W        W  302   3.571   1.675   4.220  0.0342  0.2532 -0.0176
  296W        W  303   2.374   4.138   0.421 -0.0443  0.1734 -0.1564
  297W        W  304   4.847   4.909   1.342  0.1479  0.0436  0.1977
  298W        W  305   2.938   3.645   4.874 -0.1992 -0.1460 -0.2570
  299W        W  306   2.393   1.694   2.380 -0.0554 -0.0015  0.0882
  300W        W  307   3.291   1.438   0.288 -0.0238  0.0022  0.1550
  301W        W  308   2.436   5.186   2.998 -0.2275  0.0563 -0.0299
  302W        W  309   4.968   0.728   0.304 -0.2226 -0.4081 -0.1004
  303W        W  310   5.220   0.499   2.805  0.0413 -0.3047  0.0994
  304W        W  311   0.867   3.834   0.429 -0.0145  0.2373  0.2369
  305W        W  312   2.992   2.637   3.348  0.1429  0.1897  0.2725
  306W        W  313   3.310   2.967   0.433 -0.0059 -0.0396  0.3829
  307W        W  314   4.833   2.833   3.137  0.2177  0.0923 -0.0639
  308W        W  315   1.666   5.252   3.462  0.0508  0.0553 -0.1737
  309W        W  316   4.847   0.549   2.192 -0.2486 -0.0465 -0.0198
  310W        W  317   0.528   4.462   4.498 -0.1177 -0.0250 -0.1840
  311W        W  318   4.750   2.245   3.389 -0.1343  0.0606  0.0501
  312W        W  319   4.859   2.021   4.400  0.3129 -0.0939 -0.5052
  313W        W  320   2.718   3.020   1.008  0.0577 -0.0740 -0.1690
  314W        W  321   2.466   0.315   3.698  0.0877 -0.0513  0.0956
  315W        W  322   0.869   2.571   2.657  0.1938 -0.0165 -0.2313
  316W        W  323   1.000   3.976   2.277  0.2496  0.1830  0.1748
  317W        W  324   2.921   3.571   0.170  0.0980  0.1900 -0.0273
  318W        W  325   4.488   4.016   5.220 -0.1237 -0.2537 -0.2760
  319W        W  326   3.891   3.913   1.621  0.2424  0.0888 -0.1202
  320W        W  327   4.974   1.705   3.221 -0.1233  0.2362  0.2507
  321W        W  328   2.703   5.230   2.585 -0.0682  0.2673  0.0343
  322W        W  329   4.454   3.465   3.541 -0.1594  0.1362  0.0343
  323W        W  330   1.776   0.995   2.119 -0.0147  0.1479  0.1713
  324W        W  331   1.712   0.342   1.089  0.4428 -0.2503 -0.2322
  325W        W  332   2.283   5.188   0.441 -0.2454  0.0913 -0.1344
  326W        W  333   0.366   2.443   3.516  0.0754  0.1138 -0.1087
  327W        W  334   5.072   0.520   1.105 -0.2914 -0.0648  0.5197
  328W        W  335   5.109   3.223   1.085  0.1869 -0.3403 -0.0948
  329W        W  336   4.958   3.814   0.356  0.3898  0.0311  0.1126
  330W        W  337   0.136   0.299   3.232 -0.3767  0.0460  0.3684
  331W        W  338   4.397   5.044   3.090 -0.4418  0.1198 -0.1961
  332W        W  339   1.292   4.280   3.542  0.4875 -0.0448  0.0938
  333W        W  340   2.071   0.955   0.542 -0.1618 -0.1313  0.0641
  334W        W  341   5.219   3.099   3.040 -0.0660  0.0705 -0.3003
  335W        W  342   5.012   1.359   1.020 -0.2117  0.1704 -0.2755
  336W        W  343   4.662   2.041   4.872  0.3564  0.0371 -0.1064
  337W        W  344   3.378   0.923   0.299 -0.4045  0.1612  0.1196
  338W        W  345   1.480   1.756   4.390  0.0875  0.2870  0.3583
  339W        W  346   3.538   4.351   4.898 -0.1097  0.3348  0.0124
  340W        W  347   4.374   4.101   1.900 -0.0077  0.4008 -0.1007
  341W        W  348   4.229   4.247   4.451 -0.4772  0.1396  0.3670
  342W        W  349   2.691   5.142   2.100 -0.3237  0.3331 -0.0798
  343W        W  350   3.275   1.395   3.299  0.1364 -0.0217  0.1587
  344W        W  351   0.372   3.478   2.630  0.0055 -0.1691  0.1605
  345W        W  352   3.010   1.475   4.207 -0.1571 -0.0551  0.2933
  346W        W  353   1.082   0.646   0.364 -0.3089  0.0927  0.1742
  347W        W  354   5.232   2.403   1.205  0.0674 -0.2247 -0.2767
  348W        W  355   1.433   3.116   4.062 -0.2646  0.0476  0.2422
  349W        W  356   2.937   1.118   4.567 -0.1788 -0.1276  0.1461
  350W        W  357   1.741   3.597   2.042 -0.0725  0.2888  0.3354
  351W        W  358   1.297   1.723   2.067  0.5074  0.0945  0.0939
  352W        W  359   1.076   1.424   4.335 -0.2047 -0.1336 -0.1663
  353W        W  360   4.420   1.001   0.324  0.0505  0.0763  0.3228
  354W        W  361   3.517   3.412   4.865 -0.0777  0.0269 -0.1037
  355W        W  362   4.823   1.181   4.017  0.2180  0.1638  0.0523
  356W        W  363   3.326   4.287   0.900 -0.0078  0.1274 -0.0042
  357W        W  364   1.002   1.608   3.518 -0.3623  0.0491  0.1350
  358W        W  365   2.344   3.897   0.907  0.1877 -0.0123 -0.0328
  359W        W  366   1.920   1.524   3.431 -0.0105 -0.5369  0.1824
  360W        W  367   2.597   0.896   2.897 -0.1355  0.2866  0.0382
  361W        W  368   4.026   1.195   3.050  0.1711  0.1554 -0.1189
  362W        W  369   3.899   4.584   0.006  0.0742  0.0977 -0.1772
  363W        W  370   2.345   0.509   0.285  0.0601 -0.0953 -0.1423
  364W        W  371   0.027   2.115   3.553  0.0624  0.1220  0.1121
  365W        W  372   3.041   0.321   0.600  0.4276  0.0114 -0.4132
  366W        W  373   2.244   4.554   0.093 -0.0008 -0.0540 -0.0352
  367W        W  374   4.515   1.428   2.331 -0.0962 -0.0066 -0.0105
  368W        W  375   0.881   0.207   3.905 -0.2887  0.1531 -0.1703
  369W        W  376   1.197   3.082   2.590 -0.2834 -0.0485 -0.0412
  370W        W  377   5.061   0.418   3.552  0.6031  0.4294  0.2455
  371W        W  378   1.462   0.740   1.257 -0.2263  0.0125 -0.1480
  372W        W  379   1.719   2.047   4.059 -0.2249  0.0461  0.1280
  373W        W  380   1.913   0.846   0.984 -0.1473  0.0587 -0.3785
  374W        W  381   4.259   1.074   1.084 -0.3891 -0.4694 -0.0509
  375W        W  382   4.105   4.268   3.868  0.0560 -0.0268 -0.0389
  376W        W  383   3.127   4.436   2.969 -0.0039  0.2265  0.0111
  377W        W  384   2.722   4.170   3.698 -0.1540  0.1628 -0.0704
  378W        W  385   2.165   3.061   2.908 -0.2668 -0.2657 -0.0402
  379W        W  386   5.055   3.584   4.477 -0.1478 -0.2014 -0.0167
  380W        W  387   0.783   3.539   2.269  0.1806 -0.1598  0.1536
  381W        W  388   1.690   1.917   3.552  0.2828  0.0190 -0.1604
  382W        W  389   0.681   0.377   0.104  0.2925  0.1654  0.2368
  383W        W  390   4.843   1.270   3.488 -0.0464 -0.2466  0.1621
  384W        W  391   4.282   2.037   4.393  0.1565 -0.0050  0.2958
  385W        W  392   2.224   4.848   1.216 -0.2713  0.2860 -0.0687
  386W        W  393   5.035   0.144   2.426  0.0187 -0.2678  0.3107
  387W        W  394   4.833   3.086   2.672 -0.1018 -0.0198  0.0748
  388W        W  395   4.222   2.053   1.862  0.1202 -0.1049 -0.0156
  389W        W  396   4.522   5.195   1.600 -0.2708 -0.1527 -0.2136
  390W        W  397   4.631   3.880   4.391  0.0616  0.1735 -0.5277
  391W        W  398   0.724   3.898   4.226 -0.1401 -0.0362  0.1449
  392W        W  399   5.191   1.849   1.089  0.2267  0.0623  0.0078
  393W        W  400   5.194   5.046   4.253 -0.1382 -0.2005  0.0443
  394W        W  401   2.618   2.606   2.385 -0.2165  0.0884  0.0358
  395W        W  402   4.763   3.822   3.330  0.2571  0.2292 -0.1040
  396W        W  403   2.460   1.954   4.569 -0.0926 -0.0146 -0.2749
  397W        W  404   1.827   2.794   1.482 -0.0590 -0.0912 -0.0332
  398W        W  405   1.317   0.104   4.279 -0.3828  0.1398  0.2349
  399W        W  406   4.290   1.268   3.524  0.0484 -0.1727  0.0391
  400W        W  407   5.116   1.638   3.728  0.2310  0.2002  0.5474
  401W        W  408   2.702   1.192   3.268  0.0349 -0.1055  0.2145
  402W        W  409   3.579   2.390   1.221 -0.1756  0.0197  0.2486
  403W        W  410   0.467   1.533   5.045 -0.0728 -0.2493  0.1185
  404W        W  411   5.067   0.837   3.252  0.0735  0.2632  0.2328
  405W        W  412   2.007   3.946   4.096 -0.0878 -0.1764  0.2641
  406W        W  413   3.607   0.393   0.360  0.0671  0.2736 -0.2728
  407W        W  414   4.320   2.692   0.916 -0.0203 -0.0835  0.0147
  408W        W  415   0.183   2.691   3.975  0.1527 -0.0111 -0.0186
  409W        W  416   2.964   4.804   2.521 -0.1933  0.0675  0.1723
  410W        W  417   2.585   4.058   5.258  0.0629 -0.0359 -0.1204
  411W        W  418   2.674   5.070   4.939  0.3095 -0.0174  0.0816
  412W        W  419   4.193   3.592   5.199 -0.2427 -0.2228 -0.0263
  413W        W  420   5.242   4.996   1.710 -0.1850 -0.4785 -0.1254
  414W        W  421   2.581   1.259   3.846  0.1037  0.0036 -0.1117
  415W        W  422   3.120   1.811   1.628 -0.0388  0.1472  0.1154
  416W        W  423   4.546   0.226   2.439 -0.1045 -0.1922  0.1914
  417W        W  424   4.543   4.682   2.177 -0.3221 -0.2933  0.0317
  418W        W  425   2.729   2.492   1.353 -0.0439 -0.3357  0.0659
  419W        W  426   1.911   4.909   0.070 -0.1691 -0.1044  0.0252
  420W        W  427   4.706   3.062   3.981 -0.2382 -0.3029  0.0719
  421W        W  428   1.931   1.423   0.197  0.0126  0.1018 -0.0085
  422W        W  429   0.106   2.059   0.648  0.0814  0.0234  0.1830
  423W        W  430   4.531   1.748   3.649 -0.2181  0.0152 -0.4236
  424W        W  431   4.478   2.543   4.425  0.0688  0.1036  0.1498
  425W        W  432   0.497   2.103   4.452 -0.1697  0.0554  0.2545
  426W        W  433   4.544   5.096   3.609  0.1827 -0.0768  0.0056
  427W        W  434   3.844   0.347   4.283 -0.2376  0.0314 -0.1779
  428W        W  435   3.223   4.549   2.019 -0.1131 -0.0553  0.0678
  429W        W  436   2.789   0.475   4.045  0.1273  0.2866 -0.0090
  430W        W  437   4.391   1.521   1.860 -0.0160  0.1210  0.0906
  431W        W  438   1.353   2.612   4.155  0.1215  0.0147  0.0362
  432W        W  439   3.504   4.671   1.166  0.0952  0.1866  0.1296
  433W        W  440   3.426   1.794   5.209  0.0616 -0.0222  0.4590
  434W        W  441   2.291   5.198   5.194  0.0716 -0.3774 -0.1108
  435W        W  442   0.896   4.308   3.191  0.1768  0.0985  0.2308
  436W        W  443   1.584   3.317   3.524 -0.1342  0.4792 -0.0272
  437W        W  444   0.563   2.228   3.989  0.4057  0.0085 -0.0528
  438W        W  445   4.182   0.761   2.872 -0.2505 -0.0027  0.0033
  439W        W  446   2.806   3.307   1.907 -0.1065  0.1952  0.4000
  440W        W  447   0.597   5.082   3.598 -0.2022  0.3708  0.0766
  441W        W  448   4.696   5.210   4.653  0.0274  0.0048  0.1990
  442W        W  449   1.394   4.434   1.564 -0.1215  0.0735  0.1757
  443W        W  450   5.064   1.827   5.098  0.0030 -0.2307  0.0818
  444W        W  451   3.681   1.868   4.720  0.1462  0.1977 -0.3889
  445W        W  452   2.835   0.536   2.591 -0.3236  0.0347  0.2830
  446W        W  453   4.904   2.546   4.163 -0.1100  0.2241  0.0731
  447W        W  454   2.666   5.058   0.772  0.1893  0.0022 -0.0927
  448W        W  455   4.294   3.018   2.121 -0.3428 -0.5117  0.1558
  449W        W  456   2.372   3.597   0.250 -0.4877 -0.1200  0.0426
  450W        W  457   0.254   5.264   2.305  0.0866  0.2248 -0.0582
  451W        W  458   3.196   2.722   1.216  0.2532  0.0980 -0.0138
  452W        W  459   3.698   1.557   2.574 -0.0532 -0.0610 -0.0947
  453W        W  460   1.200   4.005   2.861  0.2272  0.1064 -0.1039
  454W        W  461   1.075   3.645   1.458 -0.1849 -0.1575  0.1937
  455W        W  462   4.582   1.226   0.725  0.0898  0.1080  0.0869
  456W        W  463   1.560   4.045   0.672  0.0772 -0.0116 -0.1315
  457W        W  464   3.096   5.252   5.249 -0.1281  0.1836 -0.0936
  458W        W  465   4.339   5.080   0.257  0.0543  0.0716 -0.0364
  459W        W  466   0.570   4.692   4.949 -0.1113 -0.0688 -0.1740
  460W        W  467   3.550   5.200   3.586 -0.1724  0.1730 -0.0026
  461W        W  468   3.050   5.222   3.557 -0.3678  0.1563 -0.1335
  462W        W  469   2.189   2.553   2.769 -0.0023  0.1201 -0.0281
  463W        W  470   3.219   1.719   2.830  0.3777  0.0989  0.1389
  464W        W  471   1.435   3.749   0.244 -0.2572 -0.0776 -0.0568
  465W        W  472   4.801   4.692   3.356 -0.2815  0.1678 -0.1172
  466W        W  473   0.350   1.039   3.106  0.0865  0.0014 -0.0896
  467W        W  474   3.136   2.235   0.004 -0.0951 -0.1254 -0.0022
  468W        W  475   4.711   4.875   5.038  0.1781  0.3706  0.1984
  469W        W  476   0.157   0.490   0.249 -0.0205  0.0412  0.1562
  470W        W  477   2.388   1.575   3.586 -0.0521 -0.0906  0.0118
  471W        W  478   5.171   4.036   0.764 -0.0109  0.1644 -0.1234
  472W        W  479   2.539   2.655   0.688 -0.0608  0.0518 -0.1766
  473W        W  480   2.692   1.332   1.027 -0.0716 -0.0812 -0.1610
  474W        W  481   1.885   2.334   3.706 -0.1794 -0.1056 -0.1018
  475W        W  482   1.926   1.684   2.504 -0.1486 -0.2040 -0.1531
  476W        W  483   0.775   1.581   3.997  0.2008  0.0802  0.0688
  477W        W  484   2.898   0.106   4.598 -0.1190 -0.2629  0.1461
  478W        W  485   3.178   1.846   2.174 -0.1968  0.2912 -0.2225
  479W        W  486   3.341   3.877   4.780  0.0672 -0.0423  0.0757
  480W        W  487   4.001   2.930   0.504  0.1803  0.1283  0.0491
  481W        W  488   0.693   2.124   0.440  0.0030 -0.2659 -0.0869
  482W        W  489   1.351   2.723   0.065 -0.1207  0.0157  0.1272
  483W        W  490   4.828   2.801   0.969  0.0728 -0.0692 -0.2588
  484W        W  491   2.537   2.270   2.009 -0.0412  0.1102 -0.0101
  485W        W  492   0.205   2.191   2.276  0.1312 -0.0549  0.2374
  486W        W  493   2.076   2.766   0.549 -0.0406  0.1536  0.2329
  487W        W  494   1.925   0.192   3.891  0.0766  0.0727 -0.3658
  488W        W  495   0.555   5.059   0.810  0.3657  0.2026 -0.1305
  489W        W  496   1.413   2.257   4.518 -0.0371 -0.1947 -0.1615
  490W        W  497   2.545   2.005   2.687 -0.2008  0.0457  0.1976
  491W        W  498   0.995   4.364   0.749 -0.1503 -0.0613  0.2029
  492W        W  499   4.411   4.509   5.176  0.0228  0.0087  0.0962
  493W        W  500   3.093   4.139   5.119  0.0247  0.1460 -0.0266
  494W        W  501   1.061   0.989   0.784 -0.2389  0.1350 -0.2978
  495W        W  502   4.992   1.516   2.501 -0.0695  0.2031  0.2001
  496W        W  503   2.376   4.515   1.664 -0.0426  0.1855  0.1236
  497W        W  504   1.788   3.948   4.723 -0.2698 -0.1937 -0.2338
  498W        W  505   4.148   0.855   4.882 -0.0854 -0.2958  0.1876
  499W        W  506   4.316   4.610   2.783  0.0759  0.0986 -0.2655
  500W        W  507   1.302   3.591   2.427  0.0921 -0.1019  0.1092
  501W        W  508   4.284   1.791   1.408 -0.0330 -0.1976  0.0326
  502W        W  509   1.046   0.542   3.400 -0.2000 -0.0339  0.1601
  503W        W  510   2.355   0.751   2.471 -0.0069  0.2233 -0.1180
  504W        W  511   3.088   4.472   4.608  0.2161 -0.1931 -0.1015
  505W        W  512   4.804   3.570   0.801 -0.0730  0.1467  0.1561
  506W        W  513   3.762   2.197   5.113 -0.1212  0.0657 -0.0490
  507W        W  514   1.473   3.267   0.100  0.4022 -0.0794 -0.5275
  508W        W  515   4.608   4.487   1.727 -0.0780  0.0314  0.1222
  509W        W  516   1.805   4.347   3.615 -0.2134 -0.0969 -0.1404
  510W        W  517   2.523   1.483   4.529  0.1832  0.0384 -0.0560
  511W        W  518   4.764   1.950   1.402  0.0216 -0.2814  0.2299
  512W        W  519   3.739   0.919   1.657 -0.3592 -0.0084  0.2233
  513W        W  520   1.875   4.888   0.567 -0.1313  0.0498  0.0485
  514W        W  521   4.738   3.494   0.033  0.1272 -0.0781 -0.2711
  515W        W  522   4.625   4.196   0.416  0.2346  0.0087 -0.1837
  516W        W  523   4.716   4.183   2.220 -0.1260 -0.2038 -0.1019
  517W        W  524   5.214   3.382   2.351  0.1358  0.1085 -0.0756
  518W        W  525   4.883   1.053   4.832  0.1609 -0.1395 -0.0480
  519W        W  526   0.025   2.129   4.092  0.1324  0.1817 -0.0265
  520W        W  527   3.983   0.117   0.083 -0.3644  0.0625  0.0330
  521W        W  528   0.171   3.774   4.776  0.1393 -0.0433  0.0688
  522W        W  529   2.340   3.247   5.178  0.0263  0.2228 -0.1728
  523W        W  530   3.495   1.012   2.901  0.0794 -0.3434  0.0526
  524W        W  531   0.755   2.346   3.101 -0.1920  0.0272 -0.1496
  525W        W  532   2.370   3.997   2.959  0.2510  0.0933 -0.2123
  526W        W  533   4.597   2.892   5.041  0.2211 -0.2098 -0.0437
  527W        W  534   0.914   0.503   2.662 -0.1361  0.0284  0.3277
  528W        W  535   0.683   3.344   4.604  0.0694  0.2395 -0.0600
  529W        W  536   4.205   3.510   2.077  0.1150 -0.0266  0.0573
  530W        W  537   2.421   5.129   1.610  0.1240  0.3151  0.1800
  531W        W  538   3.184   2.894   4.725 -0.2812 -0.0415 -0.1935
  532W        W  539   0.756   4.259   1.870  0.1088 -0.0578  0.0041
  533W        W  540   2.858   3.685   3.566  0.3472  0.1069  0.0071
  534W        W  541   1.898   0.617   3.563  0.0211 -0.0405 -0.0988
  535W        W  542   1.279   2.237   5.041  0.2386 -0.2268 -0.2274
  536W        W  543   0.300   1.767   1.610  0.0730  0.1618 -0.2519
  537W        W  544   1.953   3.796   0.467 -0.1710 -0.1277 -0.1400
  538W        W  545   3.537   2.613   2.880  0.1016  0.0918  0.1266
  539W        W  546   3.096   2.665   2.595  0.2241 -0.1202 -0.0430
  540W        W  547   3.403   0.258   3.200 -0.1821  0.0981 -0.0638
  541W        W  548   2.225   2.047   3.982  0.1440  0.2116  0.1945
  542W        W  549   1.516   1.272   3.585 -0.0220 -0.0722 -0.2516
  543W        W  550   1.481   0.301   2.744  0.1062  0.2071  0.0375
  544W        W  551   0.467   3.248   2.067  0.2068  0.0561 -0.0472
  545W        W  552   3.084   4.789   0.939 -0.0077  0.2132 -0.4221
  546W        W  553   4.650   5.027   2.649 -0.1769  0.0730 -0.1635
  547W        W  554   0.772   1.341   0.548  0.0899 -0.0300  0.2253
  548W        W  555   1.820   0.016   4.415  0.1867  0.1939 -0.0564
  549W        W  556   2.225   0.713   4.574 -0.1341 -0.1167 -0.1153
  550W        W  557   2.118   2.543   3.270 -0.2086  0.0061  0.0383
  551W        W  558   2.788   4.807   1.734  0.2750 -0.6166 -0.2018
  552W        W  559   5.228   1.969   2.683 -0.2233 -0.1977  0.0609
  553W        W  560   0.677   0.665   0.921 -0.1839  0.2973  0.3091
  554W        W  561   4.903   1.769   0.583  0.0765 -0.0460  0.1737
  555W        W  562   1.702   4.417   4.082  0.1776 -0.0628 -0.1938
  556W        W  563   0.638   0.296   0.626 -0.0013  0.0481 -0.0478
  557W        W  564   1.226   4.385   2.049  0.0873  0.1474 -0.2345
  558W        W  565   1.396   4.837   3.557  0.2283  0.2520  0.1141
  559W        W  566   2.767   0.295   5.056 -0.3985 -0.3037  0.2552
  560W        W  567   3.736   0.735   4.692  0.4020  0.0346  0.2691
  561W        W  568   3.826   3.371   1.408 -0.0855 -0.0525 -0.0030
  562W        W  569   0.446   1.739   2.898  0.3264 -0.2902  0.3565
  563W        W  570   1.040   2.388   1.878  0.1711  0.0120  0.2109
  564W        W  571   1.591   2.393   1.804 -0.2855  0.1132  0.3097
  565W        W  572   1.953   3.404   4.770  0.3090  0.0254  0.0226
  566W        W  573   1.185   1.166   0.339  0.0613 -0.1800  0.3020
  567W        W  574   0.968   0.582   2.160  0.2981 -0.0063 -0.0462
  568W        W  575   0.369   2.732   2.973 -0.1116  0.0909  0.3129
  569W        W  576   2.224   2.716   4.969  0.1618  0.1699  0.0357
  570W        W  577   1.189   2.025   3.216 -0.6567 -0.0299 -0.0212
  571W        W  578   1.724   2.772   1.002  0.2012 -0.2050 -0.0329
  572W        W  579   3.180   0.866   1.999  0.6528  0.0661 -0.0979
  573W        W  580   1.677   4.480   2.300 -0.0169 -0.2961 -0.0231
  574W        W  581   3.569   4.229   0.165 -0.1282 -0.1135  0.2076
  575W        W  582   2.027   0.333   1.576  0.1958 -0.0142  0.0782
  576W        W  583   1.326   3.836   1.827 -0.0774 -0.2089 -0.0033
  577W        W  584   3.372   2.110   4.369 -0.1268 -0.2027 -0.0033
  578W        W  585   1.587   4.870   2.604  0.0555 -0.3195  0.0379
  579W        W  586   2.647   0.846   1.866 -0.1602  0.4142  0.0541
  580W        W  587   1.115   1.334   2.653 -0.2114  0.1357  0.0125
  581W        W  588   1.994   3.397   2.404 -0.0583 -0.1791 -0.1953
  582W        W  589   1.569   4.401   4.543  0.2897  0.1097 -0.0135
  583W        W  590   2.218   4.029   3.576 -0.0634 -0.2176  0.0466
  584W        W  591   5.047   0.173   1.471  0.0273  0.0006 -0.0229
  585W        W  592   0.711   4.037   2.687  0.2100  0.2160  0.1056
  586W        W  593   3.582   2.163   3.008  0.1606  0.1303 -0.2697
  587W        W  594   3.084   0.235   2.274 -0.2318  0.1283  0.2573
  588W        W  595   5.008   2.111   0.260 -0.2954  0.3745  0.2644
  589W        W  596   3.835   3.176   5.241 -0.1071  0.4496 -0.4632
  590W        W  597   0.927   2.069   0.885 -0.2130  0.2091  0.4261
  591W        W  598   3.446   0.326   5.062 -0.0101  0.1231 -0.1914
  592W        W  599   0.131   2.846   4.869  0.4644 -0.1119  0.0232
  593W        W  600   0.325   4.173   3.037 -0.3167 -0.0771  0.1832
  594W        W  601   1.416   1.351   4.829  0.0801 -0.1685  0.0478
  595W        W  602   4.916   3.837   4.941  0.1214  0.0470 -0.3061
  596W        W  603   1.831   0.950   1.657 -0.0539 -0.2398 -0.2358
  597W        W  604   0.065   4.002   2.560  0.1847  0.0129  0.0304
  598W        W  605   0.368   1.760   2.430 -0.3147 -0.4416  0.1274
  599W        W  606   1.204   2.129   2.293 -0.2409 -0.1037  0.3780
  600W        W  607   4.928   4.276   3.599 -0.0536  0.0699  0.0136
  601W        W  608   3.958   3.998   1.105 -0.1273  0.1904  0.0666
  602W        W  609   4.199   3.574   0.919  0.0500 -0.3524  0.2154
  603W        W  610   2.373   2.195   1.181  0.0713  0.0507 -0.0290
  604W        W  611   0.928   3.322   3.196  0.0571  0.0554  0.0425
  605W        W  612   4.427   3.804   2.423  0.0377  0.1039  0.0173
  606W        W  613   1.198   2.875   3.612  0.0088  0.2754  0.1169
  607W        W  614   1.938   1.482   2.023  0.0519  0.1296 -0.0106
  608W        W  615   1.214   4.614   4.001 -0.1596  0.1374 -0.0832
  609W        W  616   1.051   0.168   0.324  0.0312  0.0007  0.3090
  610W        W  617   2.845   1.011   2.438  0.2229  0.0972  0.0815
  611W        W  618   0.908   2.608   0.971  0.0410  0.1443  0.0266
  612W        W  619   3.533   1.830   1.303  0.1488 -0.1770  0.0245
  613W        W  620   2.727   4.550   1.193  0.1360  0.0716  0.2543
  614W        W  621   2.869   3.055   1.495  0.0882  0.2462  0.0854
  615W        W  622   4.535   2.596   3.825 -0.2853  0.0141  0.1686
  616W        W  623   3.751   3.191   2.902  0.0802  0.2623 -0.1139
  617W        W  624   1.913   1.295   2.925  0.0466  0.2133 -0.3428
  618W        W  625   1.390   4.229   4.931  0.0545 -0.2641 -0.0432
  619W        W  626   2.250   5.144   4.034 -0.1108  0.0580  0.0424
  620W        W  627   2.405   4.217   2.122  0.1438  0.0242  0.0790
  621W        W  628   3.274   3.290   0.023 -0.1659  0.0890  0.1045
  622W        W  629   4.824   0.593   1.673  0.1842  0.3313 -0.0618
  623W        W  630   3.125   2.733   1.732  0.0697 -0.0347 -0.0543
  624W        W  631   1.939   3.307   0.715  0.1422  0.1293 -0.0338
  625W        W  632   0.460   1.986   4.965 -0.3681  0.0138 -0.0616
  626W        W  633   4.894   2.723   2.335 -0.0352  0.0921  0.0376
  627W        W  634   1.290   3.035   3.051  0.3469  0.0297 -0.2048
  628W        W  635   3.078   0.940   4.074  0.2730  0.2594 -0.1184
  629W        W  636   1.320   4.774   4.925 -0.3745  0.1328 -0.2291
  630W        W  637   1.292   0.922   2.365 -0.2222  0.1868 -0.0851
  631W        W  638   3.363   1.046   2.402 -0.1872 -0.3229 -0.5087
  632W        W  639   1.177   4.494   2.717 -0.2275 -0.1329 -0.1133
  633W        W  640   2.245   1.778   0.307 -0.0659 -0.0480  0.0033
  634W        W  641   3.644   3.466   0.959  0.0931 -0.2772  0.1664
  635W        W  642   0.539   4.324   3.997 -0.1476 -0.1311 -0.2795
  636W        W  643   0.242   1.194   0.347 -0.2269  0.0883  0.0700
  637W        W  644   1.018   4.937   0.645  0.0867  0.1749  0.1036
  638W        W  645   3.916   2.393   4.596  0.3539  0.0027 -0.0536
  639W        W  646   0.908   1.212   4.779 -0.0499  0.0140  0.2108
  640W        W  647   3.613   4.713   1.674  0.0950  0.2501 -0.2028
  641W        W  648   2.686   0.929   1.343  0.1910  0.2897  0.3958
  642W        W  649   0.017   1.165   3.770 -0.4466  0.2470  0.1479
  643W        W  650   2.931   4.206   2.279  0.0317  0.1913 -0.3472
  644W        W  651   3.675   2.820   4.880  0.0456 -0.2144 -0.3841
  645W        W  652   3.065   2.242   1.860 -0.0847 -0.1088  0.1350
  646W        W  653   1.064   4.273   4.284  0.0638 -0.0306  0.1023
  647W        W  654   0.103   0.630   1.541  0.1241 -0.0362  0.1619
  648W        W  655   2.674   2.723   1.909 -0.1286 -0.1660  0.1627
  649W        W  656   0.823   2.839   3.131  0.0495 -0.2599 -0.0248
  650W        W  657   1.131   3.436   3.773 -0.0088 -0.1770 -0.0366
  651W        W  658   1.867   2.604   4.588 -0.0426  0.1655 -0.2880
  652W        W  659   4.832   4.370   1.313 -0.0806  0.1609  0.3091
  653W        W  660   3.670   1.348   1.126 -0.0221 -0.3214  0.1612
  654W        W  661   4.715   0.650   2.787  0.0373  0.2466 -0.2213
  655W        W  662   4.513   2.992   3.538  0.2758 -0.0197  0.2803
  656W        W  663   1.523   4.587   0.111 -0.2867  0.0598 -0.3344
  657W        W  664   4.084   2.783   3.684  0.0707 -0.0602  0.0528
  658W        W  665   1.694   3.893   1.521 -0.3052 -0.3792  0.2972
  659W        W  666   4.593   3.344   1.273 -0.1545 -0.1279 -0.2299
  660W        W  667   4.550   0.325   3.754  0.4673  0.1150 -0.3508
  661W        W  668   4.503   3.971   3.756  0.1374  0.0320 -0.0961
  662W        W  669   1.343   0.826   5.013  0.1427 -0.0211  0.1342
  663W        W  670   1.465   1.334   1.762  0.2081 -0.2187 -0.0143
  664W        W  671   2.812   5.205   3.980  0.1372  0.0356 -0.0272
  665W        W  672   5.260   3.029   1.923 -0.1793  0.2470 -0.1578
  666W        W  673   2.967   0.492   3.468 -0.1223  0.3096 -0.1067
  667W        W  674   4.129   0.586   0.075 -0.0373  0.2219 -0.3084
  668W        W  675   4.505   4.586   3.778 -0.1995  0.0410 -0.1003
  669W        W  676   1.466   1.889   0.893  0.2057 -0.0925 -0.1446
  670W        W  677   1.882   2.361   0.337 -0.3660  0.2319 -0.2318
  671W        W  678   0.987   1.912   4.317 -0.1282  0.2265 -0.1445
  672W        W  679   2.136   0.191   3.350 -0.1091 -0.0175 -0.1056
  673W        W  680   3.816   0.296   0.941  0.0789 -0.0357  0.2043
  674W        W  681   0.423   2.458   4.868  0.0429 -0.2021 -0.1464
  675W        W  682   3.527   3.738   5.246  0.0122 -0.0283  0.5306
  676W        W  683   2.682   2.424   4.093  0.0177 -0.1435  0.0222
  677W        W  684   3.842   3.557   3.158 -0.0026 -0.0763  0.0220
  678W        W  685   4.802   2.103   3.922  0.2273  0.2180 -0.1532
  679W        W  686   3.464   3.930   3.108  0.0935 -0.1661  0.0465
  680W        W  687   1.680   2.211   1.322  0.0362  0.0025  0.0079
  681W        W  688   0.031   0.986   2.615  0.0665  0.1020  0.0955
  682W        W  689   0.068   1.998   4.699  0.1089  0.0330 -0.2620
  683W        W  690   3.790   4.991   4.036 -0.2646  0.1005  0.2653
  684W        W  691   1.109   2.558   0.512  0.3275 -0.2750 -0.0157
  685W        W  692   0.051   1.427   2.900  0.0919  0.0012 -0.0762
  686W        W  693   0.921   0.850   5.173  0.4353 -0.0330  0.0721
  687W        W  694   0.465   2.213   2.688 -0.1269  0.2518  0.2847
  688W        W  695   1.863   1.458   4.976  0.0252  0.1542  0.2361
  689W        W  696   2.728   4.307   3.243  0.1739  0.1942 -0.0329
  690W        W  697   0.757   1.461   3.080  0.4435 -0.0102 -0.0056
  691W        W  698   1.395   1.726   5.232 -0.1865 -0.1191 -0.0108
  692W        W  699   2.470   1.076   4.763  0.1044  0.0362  0.3167
  693W        W  700   3.438   1.323   3.869 -0.1427  0.1716 -0.2971
  694W        W  701   1.899   2.815   0.092  0.0926  0.1329  0.0156
  695W        W  702   0.920   4.352   4.727  0.0858  0.0261  0.0049
  696W        W  703   4.726   2.907   1.823  0.3477  0.2068 -0.0152
  697W        W  704   3.804   3.103   3.399 -0.2646  0.0887 -0.2287
  698W        W  705   0.827   4.668   2.244  0.0880  0.2276  0.0381
  699W        W  706   3.708   0.754   5.174 -0.1469  0.0806  0.1121
  700W        W  707   2.531   3.429   1.512 -0.0685 -0.1398 -0.0625
  701W        W  708   2.300   2.396   0.158 -0.2117 -0.0900 -0.0563
  702W        W  709   3.116   0.445   0.156  0.0018  0.1936  0.1362
  703W        W  710   0.519   3.660   0.876  0.0902 -0.3145 -0.1481
  704W        W  711   4.023   2.868   4.384  0.1145  0.0916  0.2455
  705W        W  712   0.082   4.537   4.809 -0.2315  0.1676 -0.0954
  706W        W  713   0.661   3.055   2.606 -0.2231 -0.0116  0.4057
  707W        W  714   1.792   4.724   1.016  0.2287 -0.0566  0.1269
  708W        W  715   1.453   0.301   3.752 -0.1839 -0.4872  0.0923
  709W        W  716   5.057   5.257   3.777  0.4921  0.1839 -0.0233
  710W        W  717   0.390   5.243   4.093  0.0059  0.0401 -0.0387
  711W        W  718   0.554   0.313   2.054  0.1239 -0.1109 -0.1730
  712W        W  719   2.206   0.238   4.733  0.0211  0.2492  0.1297
  713W        W  720   0.022   4.589   3.434  0.0050  0.1233 -0.2279
  714W        W  721   0.658   2.929   4.836  0.0567 -0.1956 -0.2138
  715W        W  722   4.222   0.032   1.080  0.0967  0.0195  0.0581
  716W        W  723   2.753   2.803   3.749 -0.0224  0.1691 -0.5165
  717W        W  724   2.638   4.902   0.225 -0.0437  0.3169 -0.0754
  718W        W  725   4.315   3.149   0.141 -0.2385 -0.0052 -0.3070
  719W        W  726   0.125   2.994   2.593  0.0839  0.1573 -0.0353
  720W        W  727   0.510   3.434   0.402  0.3626 -0.1037 -0.0034
  721W        W  728   2.248   1.007   3.210  0.2432  0.1871 -0.3727
  722W        W  729   1.411   2.062   0.410  0.0594  0.0348 -0.2626
  723W        W  730   2.562   0.358   2.161 -0.1024 -0.2700 -0.1508
  724W        W  731   4.396   3.320   2.590 -0.2729  0.0560 -0.0119
  725W        W  732   2.723   4.535   5.023  0.3327  0.0224 -0.2524
  726W        W  733   2.434   2.974   4.109 -0.0382  0.1518 -0.3125
  727W        W  734   0.756   0.567   4.763  0.1869  0.4633 -0.0832
  728W        W  735   2.733   1.766   2.048 -0.0180 -0.0088  0.1520
  729W        W  736   1.946   2.730   1.983  0.0026  0.1510  0.1264
  730W        W  737   0.567   3.647   5.097 -0.0338  0.1460 -0.3319
  731W        W  738   1.945   4.869   3.610  0.0618  0.1089 -0.1238
  732W        W  739   1.063   3.783   3.358 -0.1445  0.0608  0.1770
  733W        W  740   1.818   2.031   2.009  0.1018  0.3454 -0.1272
  734W        W  741   3.682   1.659   3.558 -0.1349 -0.1153 -0.1057
  735W        W  742   2.842   0.616   0.967  0.2329  0.1789  0.1648
  736W        W  743   3.385   2.182   2.537  0.2398  0.0927  0.0549
  737W        W  744   1.105   1.201   3.880  0.0007 -0.1262  0.1091
  738W        W  745   5.136   4.536   1.650 -0.0184  0.2238  0.4907
  739W        W  746   0.839   2.471   5.261 -0.0168 -0.1447  0.0284
  740W        W  747   2.715   3.192   2.988 -0.0545 -0.1376 -0.2693
  741W        W  748   1.145   0.626   4.104 -0.1491  0.4125 -0.1072
  742W        W  749   1.783   3.233   1.222  0.0620 -0.2291  0.2900
  743W        W  750   2.711   4.067   4.764 -0.2649  0.0258 -0.0825
  744W        W  751   0.503   2.299   1.763  0.2236  0.0358  0.0251
  745W        W  752   3.849   1.113   4.125  0.3013 -0.1095 -0.3565
  746W        W  753   2.061   4.703   1.998 -0.1907  0.1580  0.0873
  747W        W  754   3.249   4.553   0.478 -0.1256  0.0525 -0.0139
  748W        W  755   2.957   0.119   1.790 -0.1274  0.0824  0.1395
  749W        W  756   0.011   4.956   0.687  0.0349  0.2466  0.1826
  750W        W  757   1.613   3.142   2.285 -0.1425  0.0224 -0.0284
  751W        W  758   4.193   0.136   3.435  0.2548 -0.1091 -0.0299
  752W        W  759   2.409   3.578   3.279 -0.1195 -0.1598  0.1048
  753W        W  760   4.913   4.569   0.802 -0.2853 -0.1218  0.2721
  754W        W  761   2.336   2.197   0.626  0.3492  0.1123  0.4580
  755W        W  762   2.855   1.982   4.230  0.3194 -0.0119 -0.1218
  756W        W  763   1.202   3.559   4.285 -0.2109  0.0560 -0.2272
  757W        W  764   4.226   5.207   4.009  0.1741 -0.1539  0.0396
  758W        W  765   0.300   4.932   1.311 -0.1810 -0.0483 -0.1616
  759W        W  766   4.508   0.143   0.696 -0.1357  0.2674 -0.0981
  760W        W  767   4.278   3.091   3.116 -0.1462 -0.1620 -0.2003
  761W        W  768   4.943   2.202   2.349  0.1661  0.0002 -0.0899
  762W        W  769   0.777   4.929   4.082  0.1385  0.3995  0.0151
  763W        W  770   2.802   1.764   3.218 -0.1204 -0.0853  0.0081
  764W        W  771   3.142   0.729   4.911 -0.0541 -0.1022  0.5541
  765W        W  772   3.538   2.345   1.693  0.2389 -0.1956 -0.3405
  766W        W  773   1.868   3.647   5.235  0.1182 -0.0771 -0.2802
  767W        W  774   1.077   5.221   3.415  0.2457  0.2281  0.2405
  768W        W  775   0.822   1.631   2.331 -0.0568  0.1142  0.0054
  769W        W  776   2.552   4.159   4.139  0.1729 -0.0679 -0.3151
  770W        W  777   0.048   4.538   4.329  0.3033 -0.0400 -0.0445
  771W        W  778   4.864   2.466   1.551  0.3002  0.2054 -0.2301
  772W        W  779   1.111   1.466   0.852 -0.1916  0.0612 -0.0686
  773W        W  780   0.892   2.155   1.457  0.1930  0.1760 -0.2022
  774W        W  781   3.905   0.269   4.794 -0.0723  0.0998 -0.0890
  775W        W  782   3.845   4.327   0.708 -0.2056 -0.1639 -0.1297
  776W        W  783   4.787   1.533   4.735  0.1796 -0.2416  0.2516
  777W        W  784   2.785   1.544   0.137 -0.3524 -0.1614 -0.0932
  778W        W  785   3.495   3.743   1.425  0.1579 -0.1731 -0.3282
  779W        W  786   1.413   3.527   1.118  0.2071  0.0836  0.3771
  780W        W  787   2.271   0.586   1.228 -0.1615 -0.0399  0.0185
  781W        W  788   3.622   4.248   1.436  0.0585 -0.4846  0.0029
  782W        W  789   0.091   4.315   3.872  0.0620 -0.1179  0.1755
  783W        W  790   4.486   0.322   1.868  0.0525  0.0302  0.2203
  784W        W  791   2.201   0.689   1.953  0.1119 -0.1050 -0.2775
  785W        W  792   0.802   3.261   1.659 -0.2402  0.0044 -0.1487
  786W        W  793   4.511   2.813   1.383  0.1365 -0.3107  0.0083
  787W        W  794   2.190   0.722   3.961 -0.0395 -0.0115 -0.0420
  788W        W  795   2.410   3.687   4.971 -0.1637 -0.1550 -0.1749
  789W        W  796   0.743   3.908   4.712  0.2820  0.2983  0.0329
  790W        W  797   3.470   0.688   3.514  0.1883 -0.2338 -0.1655
  791W        W  798   2.487   3.833   1.846  0.0342 -0.1152 -0.1721
  792W        W  799   2.872   2.189   2.371 -0.1679 -0.0439 -0.3138
  793W        W  800   1.226   3.361   1.975 -0.0231  0.5593  0.0116
  794W        W  801   2.485   0.887   0.851 -0.2885  0.0456 -0.2276
  795W        W  802   0.932   5.087   1.241 -0.1516  0.0735  0.0844
  796W        W  803   0.354   4.597   0.690 -0.2902 -0.0098  0.1871
  797W        W  804   4.739   3.561   3.983 -0.2623  0.0932 -0.2140
  798W        W  805   0.218   4.673   1.957 -0.0979 -0.3848  0.1541
  799W        W  806   4.218   4.701   4.140 -0.0665 -0.2196 -0.1075
  800W        W  807   3.826   1.253   4.807  0.0428  0.1887  0.0649
  801W        W  808   5.183   4.897   2.285  0.2929  0.1894 -0.1583
  802W        W  809   1.807   2.410   5.099  0.2055  0.2059  0.3091
  803W        W  810   2.101   2.924   2.402 -0.1814 -0.2267  0.2935
  804W        W  811   1.773   1.808   1.575 -0.2522 -0.1763  0.0792
  805W        W  812   0.387   2.065   1.144 -0.3175 -0.0991 -0.3760
  806W        W  813   0.449   3.190   3.046  0.2123  0.0557 -0.3020
  807W        W  814   2.487   5.064   4.459  0.0882  0.1009 -0.2043
  808W        W  815   0.393   0.925   5.161 -0.1549 -0.3864 -0.3893
  809W        W  816   3.758   1.215   0.152 -0.0078 -0.0923  0.2979
  810W        W  817   1.584   4.055   3.172 -0.4405  0.2699 -0.1962
  811W        W  818   2.599   0.926   4.213  0.1765 -0.0507  0.2489
  812W        W  819   0.261   0.733   3.555 -0.2189  0.1195  0.0927
  813W        W  820   3.293   0.406   1.157  0.1157 -0.0944  0.0331
  814W        W  821   1.470   0.424   0.126 -0.0037  0.0257  0.1695
  815W        W  822   2.106   4.131   1.412 -0.2532  0.0164  0.0550
  816W        W  823   0.486   1.701   0.281 -0.1506 -0.0611  0.2529
  817W        W  824   2.419   4.649   2.889 -0.0401 -0.2902  0.1388
  818W        W  825   4.029   0.730   3.862 -0.0967  0.2831  0.0416
  819W        W  826   0.505   0.894   1.468 -0.0995 -0.1668  0.1960
  820W        W  827   0.445   0.586   2.906  0.3347 -0.2610  0.0667
  821W        W  828   2.816   4.406   0.275 -0.0448  0.1863 -0.0087
  822W        W  829   1.527   2.726   2.718  0.1828  0.2644 -0.3512
  823W        W  830   0.045   4.543   1.120  0.1195 -0.0639 -0.2687
  824W        W  831   2.640   1.959   5.097 -0.0671  0.2310  0.1788
  825W        W  832   3.372   3.636   4.376  0.2240  0.1562 -0.0743
  826W        W  833   3.383   1.675   0.790  0.2903  0.2097  0.0472
  827W        W  834   1.002   3.443   0.115  0.2047 -0.3399 -0.0522
  828W        W  835   3.246   4.623   5.217  0.2049  0.1615 -0.2826
  829W        W  836   2.252   1.172   1.160 -0.2711 -0.0717  0.1446
  830W        W  837   1.920   2.125   2.743  0.1382 -0.1212  0.2747
  831W        W  838   1.920   0.342   2.493  0.3082  0.1411 -0.4251
  832W        W  839   4.991   2.725   3.581 -0.1720 -0.0513  0.0161
  833W        W  840   4.829   1.355   5.206 -0.5797 -0.0073 -0.1462
  834W        W  841   0.038   1.282   5.043 -0.2043 -0.3965 -0.3740
  835W        W  842   4.740   1.963   1.967 -0.0073  0.3592  0.1879
  836W        W  843   3.879   2.006   2.623  0.1037  0.1394 -0.1512
  837W        W  844   3.000   0.007   1.033  0.1817  0.1384  0.2577
  838W        W  845   1.042   0.083   2.967  0.1353 -0.2743  0.1668
  839W        W  846   2.508   3.237   3.601  0.1066 -0.3407 -0.1739
  840W        W  847   4.904   1.174   2.908 -0.0856  0.1396 -0.0574
  841W        W  848   1.466   4.583   0.672  0.2438  0.0740  0.3321
  842W        W  849   2.989   1.079   0.026 -0.0121  0.3137 -0.0815
  843W        W  850   4.157   1.583   2.768  0.2579  0.0528 -0.1945
  844W        W  851   0.555   1.442   1.960  0.1278  0.2305  0.0024
  845W        W  852   0.566   3.704   3.083  0.1543 -0.2187 -0.2524
  846W        W  853   1.666   2.297   3.207 -0.0542 -0.1887  0.1307
  847W        W  854   2.858   3.859   3.103 -0.3438  0.0006  0.1359
  848W        W  855   4.834   0.242   4.185 -0.3001  0.2453 -0.3157
  849W        W  856   0.384   4.188   5.004 -0.1789 -0.0535  0.1225
  850W        W  857   2.916   4.717   3.514 -0.2160 -0.1464  0.1923
  851W        W  858   4.975   3.358   3.594  0.3021 -0.2908  0.1398
  852W        W  859   3.868   0.781   0.493 -0.2388 -0.1478  0.2489
  853W        W  860   4.058   2.491   4.098  0.1806 -0.2328 -0.0540
  854W        W  861   0.154   1.287   2.246  0.1065 -0.0321 -0.2444
  855W        W  862   0.495   4.546   3.305  0.5225 -0.1779  0.2169
  856W        W  863   2.173   0.131   2.006  0.1150 -0.3711  0.3159
  857W        W  864   2.208   3.322   1.945  0.1888 -0.1185 -0.0692
  858W        W  865   3.975   2.631   1.352 -0.0990  0.1907  0.2066
  859W        W  866   3.137   4.055   1.326  0.2715 -0.2917  0.3381
  860W        W  867   5.206   4.390   0.377  0.1143 -0.2163 -0.0912
  861W        W  868   2.383   1.504   5.052 -0.0541  0.1638 -0.0628
  862W        W  869   1.703   4.400   2.762 -0.0423  0.1858 -0.1829
  863W        W  870   0.604   0.845   0.405  0.2116 -0.1814 -0.0198
  864W        W  871   0.696   2.974   0.690  0.0241  0.4552  0.1052
  865W        W  872   1.410   5.061   3.037  0.2668  0.0783 -0.1857
  866W        W  873   0.264   3.913   0.470  0.2154  0.0630 -0.1204
  867W        W  874   4.108   4.945   2.519  0.1648  0.1082 -0.5338
  868W        W  875   3.571   4.795   2.730  0.0801  0.1708  0.0676
  869W        W  876   4.202   3.812   4.077 -0.1949 -0.1532 -0.1960
  870W        W  877   4.378   0.263   5.001 -0.0141 -0.0279  0.1472
  871W        W  878   1.854   4.094   1.917  0.2036  0.1602  0.0403
  872W        W  879   0.230   2.961   3.441  0.1151  0.2797  0.1755
  873W        W  880   1.395   2.396   0.912  0.1690  0.1076 -0.2139
  874W        W  881   4.379   4.746   4.643  0.0717 -0.1063  0.3797
  875W        W  882   1.690   2.847   3.258  0.0282  0.2747  0.1241
  876W        W  883   0.604   0.129   2.702 -0.0014 -0.3503 -0.0917
  877W        W  884   0.210   1.213   1.698  0.2222  0.0437  0.0333
  878W        W  885   0.057   3.733   1.622  0.2656 -0.1237 -0.1818
  879W        W  886   4.878   4.065   1.713 -0.0574  0.1862 -0.3551
  880W        W  887   0.845   4.912   3.125 -0.0925 -0.1029 -0.1022
  881W        W  888   1.624   0.930   3.212  0.0638 -0.1131  0.2311
  882W        W  889   0.433   2.836   1.706  0.2176  0.0866 -0.1879
  883W        W  890   4.132   0.713   1.881  0.0458  0.0460  0.1398
  884W        W  891   2.290   3.843   4.481  0.0818  0.1487  0.2745
  885W        W  892   5.170   2.044   1.672 -0.1035 -0.2114 -0.2721
  886W        W  893   4.329   0.277   2.936 -0.1140 -0.1715  0.1345
  887W        W  894   5.060   2.842   5.225 -0.0334  0.2726  0.0346
  888W        W  895   1.391   4.928   1.443 -0.1086 -0.3669  0.0632
  889W        W  896   3.369   1.250   5.013 -0.3689 -0.0931  0.2815
  890W        W  897   1.775   1.262   4.458  0.2437  0.0682 -0.2581
  891W        W  898   0.612   3.543   3.600  0.1155  0.0338  0.2550
  892W        W  899   3.222   3.762   0.895 -0.5823 -0.0583 -0.3465
  893W        W  900   0.289   3.262   3.892 -0.4122 -0.2003  0.2225
  894W        W  901   3.847   1.148   3.547 -0.0298  0.2356 -0.1220
  895W        W  902   0.252   0.566   2.371 -0.3703  0.2779  0.1029
  896W        W  903   3.995   3.927   2.630  0.2257 -0.0233 -0.0715
  897W        W  904   2.736   3.542   1.060  0.1775 -0.2903  0.0031
  898W        W  905   0.350   5.044   5.211  0.0192  0.1085  0.1828
  899W        W  906   1.232   4.892   2.237 -0.1697 -0.2554  0.1616
  900W        W  907   0.737   1.176   1.080  0.0522  0.0073  0.2903
  901W        W  908   2.946   3.694   1.597  0.0441  0.1768  0.0650
  902W        W  909   1.860   1.949   0.620 -0.0665 -0.2895 -0.0010
  903W        W  910   0.124   5.258   2.741  0.2295 -0.1085  0.1597
  904W        W  911   0.071   0.009   0.305  0.0365  0.2260 -0.2753
  905W        W  912   1.236   0.132   2.220  0.1624 -0.0416 -0.4921
  906W        W  913   2.504   1.680   4.035 -0.2579  0.2174  0.0046
  907W        W  914   4.740   1.870   2.707 -0.0954  0.3536  0.0568
  908W        W  915   4.949   0.080   5.118 -0.1243  0.0815  0.2638
  909W        W  916   1.865   3.025   4.243  0.0264  0.0397 -0.1030
  910W        W  917   0.350   4.461   1.516  0.1863  0.1178  0.1687
  911W        W  918   3.069   5.086   0.496 -0.1809  0.1157 -0.2287
  912W        W  919   1.849   4.217   1.015 -0.1940  0.0387 -0.2881
  913W        W  920   2.115   2.326   1.647 -0.1837  0.0939 -0.3374
  914W        W  921   4.760   0.916   1.187 -0.0254 -0.2813 -0.0117
  915W        W  922   0.369   3.187   5.149 -0.0958  0.2023  0.0125
  916W        W  923   2.157   1.219   2.422 -0.1212 -0.1898 -0.3662
  917W        W  924   4.525   4.948   0.913  0.0753  0.2118 -0.0153
  918W        W  925   2.950   4.935   4.325  0.0094  0.4026  0.4432
  919W        W  926   1.006   3.019   4.352 -0.1115 -0.0083 -0.2375
  920W        W  927   0.151   5.069   3.398  0.2131 -0.2359  0.3769
  921W        W  928   4.449   1.095   2.720  0.1562 -0.1376 -0.2279
  922W        W  929   0.896   1.962   5.226 -0.2263 -0.3062 -0.3653
  923W        W  930   4.408   0.717   2.401  0.1911  0.0246 -0.1528
  924W        W  931   2.912   3.550   2.623 -0.0613  0.0813  0.0737
  925W        W  932   0.074   2.495   2.630 -0.3203  0.2669 -0.0553
  926W        W  933   4.399   2.342   1.462  0.2957 -0.2596  0.1114
  927W        W  934   2.237   4.200   4.944 -0.0581  0.3693  0.0248
  928W        W  935   4.064   1.490   4.372 -0.0454 -0.1745 -0.1041
  929W        W  936   2.513   1.255   0.531 -0.1399  0.2520 -0.0677
  930W        W  937   4.563   1.777   0.955 -0.1412  0.3418 -0.0179
  931W        W  938   4.117   2.667   0.054  0.0022  0.0316 -0.1675
  932W        W  939   0.718   1.689   1.319 -0.2036  0.1031  0.3304
  933W        W  940   0.984   1.409   1.634 -0.2661  0.2735  0.0064
  934W        W  941   2.171   3.408   4.285  0.1030  0.0016 -0.1426
  935W        W  942   3.854   0.279   3.780  0.1985  0.0448 -0.1343
  936W        W  943   1.228   2.644   2.310 -0.0497  0.4720  0.1323
  937W        W  944   4.999   0.005   0.950  0.2706 -0.1258  0.0195
  938W        W  945   4.415   1.910   2.339  0.2875 -0.0817  0.0451
  939W        W  946   4.204   5.013   5.047  0.2946  0.0720  0.2680
  940W        W  947   4.540   4.327   3.185 -0.3679 -0.1981 -0.0550
  941W        W  948   3.147   2.872   4.209  0.0303 -0.2035  0.1240
  942W        W  949   3.679   2.105   0.804 -0.2641  0.2006 -0.0892
  943W        W  950   4.243   3.648   1.450 -0.2987  0.3642  0.1791
  944W        W  951   3.432   1.116   4.449  0.0732  0.1006  0.0872
  945W        W  952   2.739   1.421   1.660  0.1104  0.0571  0.0055
  946W        W  953   3.929   5.199   0.667 -0.2158 -0.1002  0.0114
  947W        W  954   1.240   0.258   1.329 -0.1991 -0.1243 -0.0981
  948W        W  955   2.628   0.757   5.202  0.0176 -0.0341 -0.2325
  949W        W  956   4.689   3.345   4.839 -0.0666  0.1068  0.0829
  950W        W  957   2.093   0.405   0.700  0.0269 -0.3192  0.0246
  951W        W  958   3.657   3.870   0.642  0.0978 -0.2881 -0.3000
  952W        W  959   0.852   4.564   3.633 -0.0400 -0.2315  0.0957
  953W        W  960   4.596   2.166   0.464 -0.0325 -0.2245 -0.0111
  954W        W  961   3.645   2.093   2.164 -0.0698  0.5082  0.0073
  955W        W  962   4.238   1.291   5.143  0.0466 -0.2207 -0.1782
  956W        W  963   3.337   0.168   3.999 -0.0186  0.2674 -0.1063
  957W        W  964   0.384   0.203   4.621  0.0670 -0.1576  0.0952
  958W        W  965   3.489   3.951   2.320  0.1195  0.1933  0.0693
  959W        W  966   4.342   1.522   0.311  0.0673 -0.1917  0.1282
  960W        W  967   4.118   1.683   3.871 -0.0554 -0.3761 -0.2641
  961W        W  968   1.431   1.765   2.586 -0.0171 -0.4171  0.2847
  962W        W  969   1.038   1.771   0.401  0.2119  0.0293  0.0465
  963W        W  970   3.505   0.534   2.612 -0.0652 -0.5235  0.0125
  964W        W  971   1.278   4.611   1.125 -0.0020  0.0487 -0.1472
  965W        W  972   1.425   4.865   4.391  0.0435  0.0471  0.1025
  966W        W  973   4.405   4.129   1.373 -0.2028 -0.2018  0.2620
  967W        W  974   3.536   1.497   2.071  0.0596 -0.1322 -0.0866
  968W        W  975   1.246   3.960   4.564 -0.1188  0.0209 -0.0668
  969W        W  976   4.055   4.741   2.084 -0.1306 -0.2099  0.1734
  970W        W  977   4.794   3.807   1.327  0.1969  0.1279 -0.0547
  971W        W  978   4.688   0.330   0.201 -0.0999 -0.2228  0.2315
  972W        W  979   1.806   1.499   3.926 -0.0655 -0.3331 -0.0378
  973W        W  980   1.150   1.737   4.770 -0.2440 -0.0876 -0.0214
  974W        W  981   2.179   2.190   2.313  0.0850 -0.0345 -0.2251
  975W        W  982   3.229   2.413   0.802 -0.1786 -0.0455  0.0801
  976W        W  983   3.949   2.130   3.406  0.1723  0.0141  0.1278
  977W        W  984   0.406   4.877   2.960 -0.1394 -0.1889 -0.0853
  978W        W  985   3.435   4.784   4.407  0.2594 -0.0155  0.2642
  979W        W  986   0.186   1.535   3.361 -0.0222  0.0736  0.1564
  980W        W  987   2.361   1.651   1.338 -0.0506  0.0363 -0.5825
  981W        W  988   4.871   4.718   4.479 -0.2922 -0.3602 -0.0954
  982W        W  989   4.184   3.088   1.637 -0.0039 -0.2611 -0.2063
  983W        W  990   1.022   2.004   3.792  0.1078  0.1816  0.4095
  984W        W  991   3.559   2.996   1.106 -0.0552  0.0958  0.1532
  985W        W  992   1.429   4.558   3.143  0.0958 -0.2036 -0.0264
  986W        W  993   4.711   4.650   0.254  0.1855  0.1138 -0.2236
  987W        W  994   3.803   3.835   4.534 -0.1363  0.2389 -0.0949
  988W        W  995   5.217   1.594   0.227 -0.1253 -0.0047  0.2995
  989W        W  996   4.736   3.316   2.175 -0.1660 -0.0355 -0.2677
  990W        W  997   4.247   3.759   4.715  0.0510 -0.2990 -0.1198
  991W        W  998   2.094   2.533   4.104 -0.0290 -0.1419 -0.1911
  992W        W  999   3.144   4.539   1.489 -0.1352  0.1631 -0.1461
  993W        W 1000   1.549   0.411   3.220 -0.0607 -0.1065 -0.0458
  994W        W 1001   0.491   1.303   2.634 -0.0370 -0.0439  0.1138
  995W        W 1002   0.964   3.377   0.668 -0.3242 -0.2969 -0.0615
  996W        W 1003   4.372   0.276   4.427 -0.4399  0.0353 -0.1410
  997W        W 1004   2.997   4.466   4.145 -0.0811  0.1940 -0.1923
  998W        W 1005   0.896   2.782   1.509  0.0406  0.0704  0.1363
  999W        W 1006   5.149   4.874   0.059  0.1827  0.4976  0.0884
 1000W        W 1007   3.190   3.144   2.704  0.0358 -0.2509 -0.1778
 1001W        W 1008   1.495   4.039   2.296 -0.0592 -0.1490  0.2788
 1002W        W 1009   4.533   1.465   3.114 -0.1508 -0.1222  0.2942
 1003W        W 1010   1.581   0.128   1.689  0.3049  0.2200  0.0535
 1004W        W 1011   5.244   3.658   1.141  0.0007 -0.3017 -0.1038
 1005W        W 1012   3.399   0.460   1.887 -0.1065 -0.0454 -0.0698
 1006W        W 1013   2.700   0.620   4.628 -0.1415 -0.0607  0.1520
 1007W        W 1014   5.001   4.656   3.901  0.0778 -0.0522 -0.4428
 1008W        W 1015   3.008   2.457   4.478  0.3300 -0.3092 -0.1471
 1009W        W 1016   3.271   0.759   0.733 -0.2432 -0.1298  0.0454
 1010W        W 1017   5.141   1.063   4.376 -0.1477  0.0959 -0.0717
 1011W        W 1018   0.086   0.623   4.633 -0.3256 -0.1076  0.3694
 1012W        W 1019   4.616   1.683   4.163 -0.0719 -0.0633 -0.3732
 1013W        W 1020   1.243   0.469   0.873  0.2953 -0.3657  0.0726
 1014W        W 1021   5.157   4.996   4.768  0.0199 -0.2341 -0.0920
 1015W        W 1022   5.222   2.530   0.392  0.1095 -0.0497 -0.1764
 1016W        W 1023   1.389   2.231   2.789 -0.2575  0.1938 -0.2816
 1017W        W 1024   1.868   1.900   0.024 -0.1694  0.0920  0.2835
 1018W        W 1025   3.401   3.668   3.571 -0.1604  0.3874  0.2071
 1019W        W 1026   0.268   4.575   0.017 -0.0377 -0.1054 -0.0624
 1020W        W 1027   3.348   2.912   3.678 -0.0264  0.0342  0.1320
 1021W        W 1028   1.230   5.134   3.858 -0.0046 -0.0052  0.0645
 1022W        W 1029   3.258   4.785   3.896  0.3246  0.1583 -0.1538
 1023W        W 1030   0.036   2.470   4.481 -0.1144 -0.0917  0.1574
 1024W        W 1031   0.019   2.559   1.874  0.1571 -0.0763  0.1002
 1025W        W 1032   0.968   1.073   3.435  0.3982 -0.2464  0.0221
 1026W        W 1033   4.680   4.355   4.144 -0.2114  0.0390 -0.3641
 1027W        W 1034   3.676   4.853   4.920 -0.0191  0.2616  0.2149
 1028W        W 1035   3.760   1.656   0.478 -0.2854  0.0584 -0.1630
 1029W        W 1036   3.581   0.038   1.647 -0.0830 -0.2277  0.0773
 1030W        W 1037   5.054   4.186   4.584  0.2273  0.4555 -0.2856
 1031W        W 1038   2.802   4.283   1.763 -0.0345  0.2861  0.0104
 1032W        W 1039   1.978   1.866   1.130 -0.2076 -0.1712  0.1286
 1033W        W 1040   2.325   4.662   0.541  0.3442 -0.1213 -0.0162
 1034W        W 1041   0.355   0.152   1.542 -0.1981 -0.0318 -0.0128
 1035W        W 1042   4.459   3.139   0.763 -0.0426 -0.0096  0.0182
 1036W        W 1043   2.051   3.191   3.411 -0.2388  0.2392  0.0118
 1037W        W 1044   1.380   0.794   2.790 -0.0003 -0.1642  0.0371
 1038W        W 1045   1.841   3.725   0.943 -0.1371  0.0457  0.1037
 1039W        W 1046   3.359   1.317   1.674  0.0887  0.1203  0.0352
 1040W        W 1047   1.551   2.767   0.500 -0.2208 -0.1889  0.3032
 1041W        W 1048   2.290   1.103   0.114  0.0533 -0.2339 -0.0428
 1042W        W 1049   0.629   1.721   0.803  0.1104  0.2661  0.1514
 1043W        W 1050   4.064   2.527   1.894  0.2125  0.1726  0.0497
 1044W        W 1051   2.902   1.608   2.473 -0.0487 -0.0964  0.1830
 1045W        W 1052   1.784   3.283   1.696 -0.1398 -0.3099  0.0188
 1046W        W 1053   2.351   2.964   1.562  0.0361 -0.1662  0.0536
 1047W        W 1054   0.802   2.961   0.179 -0.0473  0.0981  0.1124
 1048W        W 1055   3.429   3.454   0.438  0.0495 -0.2740  0.3618
 1049W        W 1056   4.775   2.235   0.945  0.0083 -0.0493 -0.0205
 1050W        W 1057   3.602   2.179   0.323 -0.1132 -0.0110 -0.0872
 1051W        W 1058   3.139   3.968   2.690  0.0601 -0.0328  0.0905
 1052W        W 1059   3.707   4.081   3.519 -0.5427 -0.0866  0.0266
 1053W        W 1060   2.957   3.376   0.614  0.0378  0.1418 -0.0266
 1054W        W 1061   3.865   4.545   4.543 -0.0878  0.1068  0.1116
 1055W        W 1062   1.852   0.854   2.584 -0.0027  0.0848  0.1226
 1056W        W 1063   3.369   2.514   2.175  0.1139  0.3720 -0.3320
 1057W        W 1064   3.180   1.313   1.112 -0.1932 -0.2075 -0.1928
 1058W        W 1065   0.146   0.243   5.123  0.1030  0.1260  0.1939
 1059W        W 1066   2.264   2.721   1.114  0.1525 -0.1783 -0.0987
 1060W        W 1067   4.780   3.385   3.068  0.2062  0.0632  0.0863
 1061W        W 1068   0.804   5.180   2.257  0.0096 -0.1225  0.3248
 1062W        W 1069   3.594   4.429   3.097  0.3539  0.0827 -0.2866
 1063W        W 1070   5.169   3.189   4.170 -0.1531  0.1895 -0.2504
 1064W        W 1071   1.689   5.045   3.982  0.0847 -0.0367 -0.3037
 1065W        W 1072   2.136   2.005   3.377 -0.0142  0.1208  0.0644
 1066W        W 1073   3.571   2.892   1.575 -0.1403 -0.0796 -0.1910
 1067W        W 1074   0.001   3.983   0.029  0.1576  0.1141 -0.0122
 1068W        W 1075   0.311   1.305   4.147 -0.2082  0.1720  0.0500
 1069W        W 1076   1.934   0.278   0.105  0.1911  0.2860 -0.1107
 1070W        W 1077   0.819   0.314   1.646 -0.1784 -0.4590  0.2731
 1071W        W 1078   4.390   2.022   3.057  0.1764  0.0148  0.0350
 1072W        W 1079   2.218   4.931   2.444  0.3910 -0.1240 -0.1275
 1073W        W 1080   0.579   5.199   0.316  0.0897 -0.0153  0.1212
 1074W        W 1081   2.601   3.137   2.510 -0.0235 -0.1944  0.1071
 1075W        W 1082   0.024   2.786   0.833  0.0265 -0.0937  0.0614
 1076W        W 1083   1.232   2.979   0.978  0.1419 -0.2267 -0.1012
 1077W        W 1084   0.369   3.194   1.019  0.0992 -0.0674  0.0063
 1078W        W 1085   4.034   1.621   2.252 -0.1224  0.2892  0.1494
 1079W        W 1086   3.180   2.357   3.935  0.2763 -0.0410 -0.1565
 1080W        W 1087   4.827   2.523   4.762 -0.2705 -0.1371 -0.0565
 1081W        W 1088   5.008   3.968   4.073 -0.0192  0.0951  0.1249
 1082W        W 1089   3.635   4.656   3.533  0.0566 -0.2335  0.2645
 1083W        W 1090   0.684   2.871   4.024  0.1123  0.0554 -0.1424
 1084W        W 1091   1.477   5.172   0.927  0.0788  0.4163 -0.1073
 1085W        W 1092   1.882   4.381   0.440  0.1410  0.1820  0.3096
 1086W        W 1093   0.770   0.977   2.386 -0.2318  0.0196 -0.0847
 1087W        W 1094   1.299   3.168   1.437  0.0087 -0.2336 -0.0263
 1088W        W 1095   4.215   1.705   4.809 -0.0990  0.2195 -0.1436
 1089W        W 1096   3.873   1.700   1.778 -0.1108 -0.3203  0.0685
 1090W        W 1097   4.583   4.236   4.768  0.1930  0.3459  0.0558
 1091W        W 1098   2.523   0.397   1.624 -0.1556  0.0083  0.1472
 1092W        W 1099   1.361   4.054   1.197  0.0809 -0.1875 -0.0631
 1093W        W 1100   3.114   2.189   1.240  0.0861  0.0136  0.0896
 1094W        W 1101   3.855   3.470   4.201  0.0083 -0.1299 -0.0426
 1095W        W 1102   2.870   4.199   0.829  0.0173  0.0111 -0.2933
 1096W        W 1103   2.909   1.493   4.952  0.0001 -0.1395  0.0504
 1097W        W 1104   2.846   3.161   5.054 -0.2031  0.1605  0.2775
 1098W        W 1105   1.731   3.296   2.840  0.0483  0.1158 -0.1658
 1099W        W 1106   0.908   1.482   5.218  0.1434  0.2239 -0.4179
 1100W        W 1107   2.646   2.531   5.098  0.0310  0.2143  0.0901
 1101W        W 1108   4.885   0.088   2.857  0.3138 -0.1317 -0.1271
 1102W        W 1109   2.347   3.506   2.748  0.0021  0.0538 -0.1514
 1103W        W 1110   3.712   3.961   4.042  0.1576  0.2258 -0.0525
 1104W        W 1111   2.513   3.519   2.273  0.0505  0.0115  0.1160
 1105W        W 1112   1.438   3.532   4.922  0.0789  0.0242  0.1787
 1106W        W 1113   0.889   3.015   2.124 -0.1391  0.1435 -0.0048
 1107W        W 1114   5.250   4.127   1.359 -0.3100 -0.3004  0.2426
 1108W        W 1115   2.967   3.740   2.098 -0.1250  0.0464  0.2813
 1109W        W 1116   1.129   3.126   5.012  0.0914 -0.4162  0.0336
 1110W        W 1117   1.944   3.687   3.222  0.1798 -0.2435 -0.3580
 1111W        W 1118   3.707   2.595   0.809  0.0499 -0.1164  0.3235
 1112W        W 1119   2.913   1.501   3.615  0.1950 -0.1055 -0.0016
 1113W        W 1120   1.608   0.532   4.239 -0.0605 -0.2724 -0.1009
 1114W        W 1121   1.619   1.058   4.017  0.1731  0.0062  0.1433
 1115W        W 1122   4.855   0.998   2.389 -0.2601  0.1382 -0.0011
 1116W        W 1123   0.205   0.121   1.031  0.2203 -0.1579 -0.1588
 1117W        W 1124   4.529   1.007   1.936  0.3818 -0.0279  0.0133
 1118W        W 1125   4.662   0.833   3.632 -0.0979  0.4661 -0.2867
 1119W        W 1126   2.254   1.728   2.994  0.0553  0.0155  0.0491
 1120W        W 1127   0.763   5.148   4.896  0.1304 -0.0748 -0.2411
 1121W        W 1128   3.683   1.631   3.047  0.0389 -0.0084 -0.1848
 1122W        W 1129   0.170   0.554   0.800  0.1609  0.0709  0.1799
 1123W        W 1130   4.580   0.946   3.174 -0.1017  0.0743 -0.2790
 1124W        W 1131   2.529   1.262   2.136 -0.0717 -0.3757  0.1352
 1125W        W 1132   2.712   3.807   0.552 -0.1561 -0.0097  0.1307
 1126W        W 1133   1.310   1.655   3.920  0.2518 -0.3957  0.0086
 1127W        W 1134   0.927   0.930   1.799 -0.2426  0.1279 -0.1459
 1128W        W 1135   0.067   0.361   4.166 -0.1067  0.1180  0.1746
 1129W        W 1136   5.059   0.745   3.971  0.1151  0.1078 -0.3248
 1130W        W 1137   2.412   3.224   0.590  0.0349  0.0312  0.1890
 1131W        W 1138   0.934   4.818   4.545  0.0151 -0.1360 -0.0010
 1132W        W 1139   4.095   2.862   2.669 -0.3319 -0.3451  0.3479
 1133W        W 1140   3.964   4.723   1.037  0.1917 -0.1710  0.0326
 1134W        W 1141   3.952   3.521   3.660  0.2726  0.0573  0.2914
 1135W        W 1142   0.393   1.145   4.667  0.3358 -0.0910  0.0328
 1136W        W 1143   3.059   1.337   2.044 -0.2060  0.3517 -0.2105
 1137W        W 1144   2.326   0.319   2.763 -0.0352 -0.1523 -0.3108
 1138W        W 1145   1.406   2.400   3.676  0.0062  0.1150 -0.0005
 1139W        W 1146   0.546   1.295   3.589  0.2466 -0.0899  0.1868
 1140W        W 1147   3.193   3.957   0.436 -0.0037 -0.2081 -0.0862
 1141W        W 1148   2.547   5.057   3.589  0.0123 -0.1296 -0.0009
 1142W        W 1149   2.613   2.752   2.832  0.0129 -0.1048 -0.1063
 1143W        W 1150   2.171   4.484   3.931  0.1011 -0.2418  0.2469
 1144W        W 1151   5.099   1.505   1.492 -0.1814  0.1479 -0.0650
 1145W        W 1152   4.537   2.436   1.963 -0.0888 -0.0766  0.0837
 1146W        W 1153   0.982   5.080   0.029 -0.0149 -0.0512 -0.1080
 1147W        W 1154   0.940   4.186   1.440 -0.0352 -0.1573  0.0831
 1148W        W 1155   0.472   0.828   1.989 -0.2339 -0.1660  0.1124
 1149W        W 1156   2.384   0.295   4.259 -0.0907 -0.1632 -0.0726
 1150W        W 1157   2.263   4.804   4.882 -0.2021  0.2890 -0.1580
 1151W        W 1158   2.889   0.142   3.071 -0.1694 -0.3411 -0.0120
 1152W        W 1159   3.902   3.388   2.449 -0.3042  0.0571 -0.2527
 1153W        W 1160   3.125   2.739   5.190 -0.2010  0.0126  0.3623
 1154W        W 1161   5.228   3.778   2.986  0.0671  0.0984 -0.2177
 1155W        W 1162   1.782   5.018   4.808  0.1372 -0.0038 -0.0544
 1156W        W 1163   3.253   4.054   1.864  0.1878  0.0610  0.3343
 1157W        W 1164   2.059   5.232   0.917 -0.1713 -0.2170  0.2622
 1158W        W 1165   3.270   0.519   4.457 -0.0178  0.1072  0.0998
 1159W        W 1166   2.602   3.374   4.649  0.0334  0.0272 -0.3422
 1160W        W 1167   0.525   4.032   3.545  0.2503 -0.1371  0.1326
 1161W        W 1168   2.605   4.716   3.947 -0.1403  0.2528  0.2905
 1162W        W 1169   5.008   3.336   1.631 -0.0385  0.2912 -0.1100
 1163W        W 1170   4.090   4.890   3.641 -0.1564 -0.0140  0.0795
 1164W        W 1171   1.467   5.234   5.175  0.3360  0.1010  0.0782
 1165W        W 1172   0.421   4.159   0.901 -0.2034 -0.2442 -0.1105
 1166W        W 1173   1.684   0.142   0.552  0.0485  0.0632 -0.1893
 1167W        W 1174   0.523   4.982   1.817  0.1173 -0.1442  0.0041
 1168W        W 1175   0.659   3.830   1.802 -0.2056 -0.1383 -0.1949
 1169W        W 1176   0.830   0.068   4.409 -0.0585  0.0706  0.0231
 1170W        W 1177   0.182   4.152   1.888 -0.2185  0.0191 -0.0453
 1171W        W 1178   0.412   4.815   2.413  0.1054  0.1647 -0.1796
 1172W        W 1179   4.135   0.289   1.488  0.1591 -0.3014  0.1890
 1173W        W 1180   2.827   2.118   0.798 -0.1104  0.2766 -0.5914
 1174W        W 1181   1.315   2.851   1.866 -0.1655  0.2701  0.1371
 1175W        W 1182   2.882   1.785   1.131  0.0357 -0.0528 -0.0150
 1176W        W 1183   2.485   0.484   3.247  0.0034 -0.3263  0.3516
 1177W        W 1184   0.605   4.232   0.209 -0.1215  0.1390 -0.1224
 1178W        W 1185   5.177   3.307   4.963 -0.1106  0.0714  0.1032
 1179W        W 1186   2.270   3.281   1.092  0.0388 -0.2493  0.1011
 1180W        W 1187   0.338   3.043   4.430  0.0747  0.0482 -0.3278
 1181W        W 1188   3.045   3.275   4.435  0.1870  0.1243 -0.2797
 1182W        W 1189   3.087   1.017   3.582 -0.0395 -0.5510  0.0075
 1183W        W 1190   0.036   3.491   0.169 -0.1242 -0.1393 -0.1428
 1184W        W 1191   4.053   5.023   1.534  0.0610  0.1251 -0.0822
 1185W        W 1192   5.095   4.897   2.883  0.1310 -0.1366 -0.5073
 1186W        W 1193   2.608   4.017   1.332 -0.0285 -0.5064  0.2107
 1187ION     NA 1194   0.059   3.425   1.910 -0.0818 -0.0094  0.2152
 1188ION     NA 1195   1.682   1.110   0.425 -0.3606  0.4375  0.0707
 1189ION     NA 1196   1.505   3.518   3.960  0.1346 -0.2035  0.3201
 1190ION     NA 1197   1.117   4.574   0.393  0.3138 -0.3830 -0.5252
 1191ION     CL 1198   1.266   2.165   4.105  0.1067 -0.4776  0.2527
 1192ION     CL 1199   2.030   3.132   3.913  0.0112 -0.1343  0.3087
 1193ION     CL 1200   1.453   0.856   0.216  0.0225  0.2691 -0.1072
 1194ION     CL 1201   0.578   1.313   1.457  0.0061 -0.2465 -0.1627
   5.26691   5.26691   5.26691
