Written by MDAnalysis
    8
   73CER6   NOH    1   3.339   1.230   5.029
   73CER6    OH    2   3.242   0.916   4.947
   73CER6   GLA    3   3.497   1.458   4.987
   73CER6   GLB    4   3.099   1.015   5.162
   73CER6   C1A    5   3.163   1.781   4.672
   73CER6   C2A    6   2.778   1.870   4.322
   73CER6   C1B    7   2.742   1.289   4.903
   73CER6   C2B    8   2.534   1.739   4.807
   5.08192   5.08192   7.85499
