[ moleculetype ]
SCER 1
[ atoms ]
; nr type resnr residue atom cgnr charge mass
   1    SP4r       1    SCER      A        1       0      54  
   2    SP1r       1    SCER      B        2       0      54
   3    SP1r       1    SCER      C        3       0      54
   4    TC4        1    SCER     VS        4       0       0
; mine from below
   5    SP2        1    SCER    NOH        5       0      54 ; the same as AM2 in Luis
   6    SP1        1    SCER    GLA        6       0      54 
   7    P4         1    SCER    GLB        7       0      72 ; the same as OH1, possibly S bead as well, depends on APL
   8    C1         1    SCER    C1A        8       0      72
   9    C1         1    SCER    C2A        9       0      72
   10   C4h        1    SCER    D3A       10       0      72
   11   C1         1    SCER    C4A       11       0      72
   12   C1         1    SCER    C5A       12       0      72
   13   C1         1    SCER    C1B       13       0      72
   14   C1         1    SCER    C2B       14       0      72
   15   C1         1    SCER    C3B       15       0      72

[ constraints ]
;; scaled 15% as per carbohydrate paper.
   1       2       1    0.403     ;  A-  B
   1       3       1    0.426     ;  A-  C
   2       3       1    0.449     ;  B-  C

[ bonds ]
; i  j  funct length
   3       7       1    0.315   8000  ;  C-GLB
   3       5       1    0.475   8000  ;  C-NOH
;from me
   5       7       1    0.30    9000  ;NOH-GLB
   5       6       1    0.30    8000  ;NOH-GLA
   7      13       1    0.47    4000  ;GLB-C1B
   13     14       b_C1_C1_mid        ;C1B-C2B
   14     15       b_C1_C1_end        ;C2B-C3B
   6       8       1    0.60    4000  ;GLA-C1A
   8       9       b_C1_C1_mid        ;C1A-C2A
   9      10       b_C1_C4_mid        ;C2A-D3A
   10     11       b_C4_C1_mid        ;D3A-C4A
   11     12       b_C1_C1_end        ;C4A-C5A

[ angles ]
;  i  j  k   funct   angle   force.c.
   2       3       5       10      90      75  ;  B-  C-NOH
   2       3       7        1      130     25  ;  B-  C-GLB
; linker to tails
   6       8       9       2     160      75  ;GLA-C1A-C2A
   5       5       8       2     100      55  ;NOH-GLA-C1A
   7      13      14       2     160      65  ;GLB-C1B-C2B
   6       5       7       2     160      65  ;GLA-NOH-GLB
;tails
   8       9      10     a_C1_C1_C4_def       ;C1A-C2A-D3A
   9      10      11     a_C1_C4_C1_def       ;C2A-D3A-C4A
  10      11      12     a_C4_C1_C1_def       ;D3A-C4A-C5A
  13      14      15     a_C1_C1_C1_def       ;C1B-C2B-C3B


[ dihedrals ]
1  2  3  5    2   180.0  50 ;A-B-C-NOH

[ virtual_sitesn ]
4 1 1 2 3  ;sugar ring 

[ exclusions ]
4 1 2 3    ;sugar ring
