Written by MDAnalysis
 1201
   73CER6   NOH    1   2.790   2.318   2.675
   73CER6    OH    2   2.693   2.004   2.593
   73CER6   GLA    3   2.948   2.546   2.633
   73CER6   GLB    4   2.550   2.103   2.808
   73CER6   C1A    5   2.614   2.869   2.318
   73CER6   C2A    6   2.229   2.958   1.968
   73CER6   C1B    7   2.193   2.377   2.549
   73CER6   C2B    8   1.985   2.827   2.453
   74W        W    9   1.495   0.821   3.127
   75W        W   10   2.276   4.379   0.851
   76W        W   11   5.055   4.688   2.860
   77W        W   12   4.012   4.510   5.068
   78W        W   13   3.595   3.790   5.262
   79W        W   14   3.026   2.679   3.002
   80W        W   15   1.525   3.724   1.065
   81W        W   16   3.372   0.445   2.683
   82W        W   17   2.891   2.358   2.013
   83W        W   18   0.394   3.593   2.307
   84W        W   19   0.121   0.230   1.920
   85W        W   20   3.247   1.444   4.917
   86W        W   21   2.688   3.049   5.235
   87W        W   22   3.273   4.052   1.223
   88W        W   23   2.431   4.545   1.793
   89W        W   24   4.616   0.921   5.212
   90W        W   25   0.823   0.105   0.652
   91W        W   26   1.259   3.336   3.304
   92W        W   27   3.139   1.761   0.834
   93W        W   28   3.415   1.193   3.145
   94W        W   29   0.097   2.465   0.167
   95W        W   30   4.675   2.727   1.936
   96W        W   31   4.158   0.392   3.947
   97W        W   32   2.276   2.197   3.599
   98W        W   33   0.722   2.399   1.416
   99W        W   34   4.388   5.306   4.807
  100W        W   35   4.724   1.452   5.257
  101W        W   36   3.520   4.799   1.136
  102W        W   37   3.430   2.494   1.925
  103W        W   38   2.218   3.970   3.977
  104W        W   39   2.969   3.123   1.046
  105W        W   40   4.335   0.636   1.571
  106W        W   41   1.251   1.355   0.676
  107W        W   42   0.181   0.529   3.770
  108W        W   43   4.596   2.487   3.814
  109W        W   44   3.634   2.447   4.145
  110W        W   45   0.259   0.398   4.461
  111W        W   46   3.829   2.971   1.985
  112W        W   47   2.297   3.616   1.311
  113W        W   48   2.743   4.463   2.923
  114W        W   49   1.660   1.930   0.709
  115W        W   50   2.402   3.083   0.186
  116W        W   51   1.224   0.608   4.407
  117W        W   52   3.685   5.069   2.606
  118W        W   53   1.426   4.625   2.645
  119W        W   54   1.347   0.060   3.224
  120W        W   55   2.972   1.640   0.098
  121W        W   56   3.587   0.662   0.683
  122W        W   57   1.996   0.566   2.654
  123W        W   58   3.672   3.356   0.461
  124W        W   59   2.715   5.057   0.371
  125W        W   60   4.727   4.081   2.883
  126W        W   61   0.432   4.714   1.334
  127W        W   62   4.010   2.783   0.941
  128W        W   63   1.910   2.466   2.474
  129W        W   64   2.707   4.346   2.332
  130W        W   65   4.965   5.248   3.529
  131W        W   66   1.675   4.349   4.596
  132W        W   67   2.239   1.523   3.757
  133W        W   68   5.047   0.493   1.860
  134W        W   69   3.142   0.401   0.801
  135W        W   70   2.787   1.298   4.646
  136W        W   71   3.607   4.596   2.373
  137W        W   72   0.805   3.617   2.721
  138W        W   73   1.639   4.307   0.941
  139W        W   74   4.021   0.958   0.403
  140W        W   75   0.855   5.170   1.338
  141W        W   76   2.629   1.826   1.619
  142W        W   77   3.845   0.296   5.077
  143W        W   78   2.474   0.860   2.542
  144W        W   79   4.393   5.052   3.890
  145W        W   80   4.659   2.651   0.118
  146W        W   81   3.137   4.186   0.256
  147W        W   82   3.725   4.390   3.221
  148W        W   83   1.563   3.319   2.342
  149W        W   84   2.126   3.860   2.688
  150W        W   85   1.772   0.220   0.149
  151W        W   86   1.096   2.511   2.028
  152W        W   87   2.281   5.042   0.053
  153W        W   88   1.265   1.050   2.287
  154W        W   89   3.667   4.200   2.636
  155W        W   90   3.932   2.834   3.884
  156W        W   91   2.799   4.083   3.835
  157W        W   92   1.718   3.025   0.671
  158W        W   93   1.603   2.247   0.244
  159W        W   94   0.288   3.851   4.587
  160W        W   95   3.298   2.833   4.270
  161W        W   96   2.879   2.756   3.896
  162W        W   97   4.890   0.589   3.646
  163W        W   98   1.718   4.138   0.067
  164W        W   99   1.839   1.570   4.703
  165W        W  100   3.532   1.017   0.380
  166W        W  101   3.437   0.112   0.153
  167W        W  102   4.048   3.825   2.619
  168W        W  103   2.669   3.494   2.326
  169W        W  104   4.492   1.300   4.872
  170W        W  105   1.954   2.646   1.644
  171W        W  106   0.470   2.876   0.556
  172W        W  107   5.261   1.349   2.704
  173W        W  108   2.868   0.734   3.498
  174W        W  109   2.398   3.151   1.051
  175W        W  110   4.535   3.317   3.298
  176W        W  111   0.071   3.639   1.009
  177W        W  112   3.315   2.030   0.316
  178W        W  113   4.559   0.044   1.785
  179W        W  114   5.087   4.547   5.047
  180W        W  115   4.372   5.280   3.385
  181W        W  116   4.355   3.617   2.165
  182W        W  117   0.412   2.566   3.745
  183W        W  118   3.761   1.346   1.277
  184W        W  119   0.088   5.304   0.608
  185W        W  120   3.809   1.285   2.830
  186W        W  121   5.240   3.957   3.589
  187W        W  122   4.981   1.063   1.177
  188W        W  123   4.051   4.744   2.677
  189W        W  124   4.499   2.277   4.704
  190W        W  125   3.781   4.942   5.191
  191W        W  126   2.467   0.229   1.758
  192W        W  127   1.487   0.977   4.262
  193W        W  128   4.292   1.817   0.572
  194W        W  129   4.140   4.677   4.146
  195W        W  130   3.715   4.305   1.393
  196W        W  131   2.065   2.754   2.108
  197W        W  132   4.412   0.937   3.338
  198W        W  133   1.217   2.215   3.110
  199W        W  134   0.220   2.079   2.294
  200W        W  135   0.727   4.505   2.142
  201W        W  136   0.196   0.681   1.774
  202W        W  137   4.435   0.434   3.540
  203W        W  138   3.466   3.436   1.858
  204W        W  139   0.574   1.785   2.484
  205W        W  140   4.249   4.328   1.597
  206W        W  141   2.219   3.722   3.162
  207W        W  142   2.596   1.706   3.480
  208W        W  143   3.035   0.005   0.522
  209W        W  144   2.404   4.698   1.277
  210W        W  145   2.305   2.589   1.276
  211W        W  146   5.261   2.521   3.511
  212W        W  147   1.052   4.049   2.752
  213W        W  148   4.458   3.623   3.737
  214W        W  149   3.629   3.485   3.814
  215W        W  150   4.098   3.967   5.193
  216W        W  151   3.810   2.095   2.003
  217W        W  152   1.695   1.918   4.358
  218W        W  153   2.191   5.161   4.178
  219W        W  154   2.153   4.505   4.366
  220W        W  155   2.893   1.105   2.836
  221W        W  156   0.826   1.222   3.335
  222W        W  157   2.049   1.670   0.420
  223W        W  158   4.102   4.363   2.335
  224W        W  159   1.546   1.747   3.344
  225W        W  160   1.291   0.610   0.047
  226W        W  161   3.547   1.517   4.523
  227W        W  162   4.912   2.532   1.494
  228W        W  163   2.384   2.507   4.029
  229W        W  164   0.736   2.846   3.026
  230W        W  165   0.105   1.060   0.939
  231W        W  166   1.283   2.088   3.576
  232W        W  167   3.712   2.625   0.175
  233W        W  168   3.237   0.312   1.313
  234W        W  169   1.102   0.072   1.631
  235W        W  170   4.758   2.111   1.302
  236W        W  171   5.157   1.885   2.541
  237W        W  172   0.916   1.594   3.678
  238W        W  173   1.841   2.837   1.127
  239W        W  174   1.917   4.899   4.579
  240W        W  175   2.810   0.489   0.376
  241W        W  176   2.092   2.191   0.393
  242W        W  177   5.085   1.960   4.607
  243W        W  178   4.559   3.608   0.177
  244W        W  179   2.793   2.228   3.730
  245W        W  180   2.617   1.074   2.111
  246W        W  181   0.384   5.144   3.636
  247W        W  182   4.393   3.380   4.847
  248W        W  183   0.802   1.981   0.370
  249W        W  184   1.940   3.367   0.980
  250W        W  185   1.546   0.911   3.760
  251W        W  186   2.186   2.539   2.885
  252W        W  187   4.151   2.124   5.068
  253W        W  188   3.708   2.636   4.593
  254W        W  189   1.961   1.540   4.169
  255W        W  190   0.457   4.532   3.515
  256W        W  191   3.009   3.572   2.696
  257W        W  192   4.509   2.925   4.124
  258W        W  193   4.633   3.501   1.761
  259W        W  194   3.671   0.022   2.852
  260W        W  195   4.504   4.636   2.866
  261W        W  196   3.434   2.168   2.380
  262W        W  197   0.863   4.086   4.770
  263W        W  198   1.023   0.296   4.109
  264W        W  199   1.600   4.780   2.142
  265W        W  200   2.525   3.706   3.614
  266W        W  201   2.426   0.896   5.200
  267W        W  202   0.843   1.297   5.261
  268W        W  203   0.758   4.775   1.753
  269W        W  204   0.420   1.776   1.983
  270W        W  205   2.114   0.194   3.832
  271W        W  206   5.242   3.337   2.783
  272W        W  207   2.369   0.829   4.579
  273W        W  208   5.046   2.880   4.343
  274W        W  209   0.158   1.359   3.066
  275W        W  210   4.926   0.456   4.347
  276W        W  211   2.889   1.346   0.551
  277W        W  212   1.284   2.810   4.747
  278W        W  213   1.450   4.675   4.931
  279W        W  214   4.219   1.590   5.084
  280W        W  215   0.363   5.119   1.557
  281W        W  216   5.146   5.142   1.672
  282W        W  217   4.969   3.100   1.813
  283W        W  218   2.190   2.894   0.662
  284W        W  219   4.796   1.681   0.494
  285W        W  220   4.203   5.246   1.335
  286W        W  221   0.370   3.641   3.405
  287W        W  222   3.602   0.293   1.626
  288W        W  223   2.390   2.413   0.786
  289W        W  224   1.584   4.103   1.953
  290W        W  225   1.517   0.207   4.466
  291W        W  226   1.453   3.874   4.422
  292W        W  227   4.340   1.649   4.101
  293W        W  228   0.236   4.204   3.168
  294W        W  229   4.507   1.824   3.126
  295W        W  230   5.031   3.766   1.615
  296W        W  231   1.574   0.820   1.486
  297W        W  232   3.301   5.097   2.258
  298W        W  233   1.600   3.613   0.099
  299W        W  234   0.445   3.323   0.851
  300W        W  235   2.057   3.025   2.987
  301W        W  236   2.457   3.381   0.646
  302W        W  237   4.816   0.388   1.404
  303W        W  238   2.726   3.351   1.426
  304W        W  239   0.605   3.548   4.792
  305W        W  240   0.836   3.833   3.249
  306W        W  241   4.699   2.619   2.450
  307W        W  242   2.482   4.638   3.378
  308W        W  243   2.048   4.659   4.984
  309W        W  244   1.371   4.439   0.282
  310W        W  245   1.243   0.585   1.808
  311W        W  246   5.239   3.809   0.911
  312W        W  247   3.804   1.712   2.512
  313W        W  248   4.763   4.437   0.529
  314W        W  249   1.707   5.074   0.855
  315W        W  250   3.671   5.233   1.341
  316W        W  251   0.575   1.731   4.567
  317W        W  252   1.953   0.401   0.717
  318W        W  253   0.612   2.963   3.479
  319W        W  254   4.704   4.044   2.000
  320W        W  255   0.208   0.070   0.336
  321W        W  256   2.414   3.947   2.196
  322W        W  257   2.921   5.049   4.664
  323W        W  258   0.423   2.836   0.075
  324W        W  259   1.368   3.728   3.654
  325W        W  260   3.263   1.102   4.549
  326W        W  261   3.331   4.399   0.895
  327W        W  262   3.956   5.257   1.728
  328W        W  263   3.079   2.972   3.467
  329W        W  264   3.501   4.740   2.950
  330W        W  265   2.754   5.059   3.501
  331W        W  266   1.889   3.821   2.270
  332W        W  267   4.834   1.512   4.631
  333W        W  268   0.517   4.340   5.020
  334W        W  269   1.486   3.428   4.597
  335W        W  270   2.339   0.229   2.450
  336W        W  271   4.712   4.776   3.620
  337W        W  272   4.727   0.889   1.673
  338W        W  273   0.151   1.448   2.261
  339W        W  274   0.900   4.599   2.655
  340W        W  275   1.888   2.483   0.735
  341W        W  276   1.942   4.372   3.872
  342W        W  277   1.207   2.254   0.573
  343W        W  278   0.480   1.628   4.020
  344W        W  279   2.840   0.361   2.659
  345W        W  280   3.737   2.781   1.470
  346W        W  281   1.542   3.734   5.267
  347W        W  282   5.001   1.351   1.773
  348W        W  283   2.428   2.023   0.027
  349W        W  284   5.190   4.996   0.763
  350W        W  285   0.209   2.039   0.427
  351W        W  286   0.967   4.602   4.840
  352W        W  287   4.381   2.686   0.652
  353W        W  288   0.949   2.728   5.130
  354W        W  289   4.740   4.427   3.277
  355W        W  290   0.393   4.724   2.446
  356W        W  291   2.709   5.082   3.024
  357W        W  292   1.560   0.300   1.604
  358W        W  293   2.931   4.536   3.656
  359W        W  294   1.243   4.558   1.820
  360W        W  295   4.021   4.955   4.766
  361W        W  296   4.695   0.422   0.677
  362W        W  297   0.101   2.898   4.051
  363W        W  298   0.713   1.173   3.859
  364W        W  299   2.909   3.910   2.031
  365W        W  300   4.405   1.202   4.222
  366W        W  301   2.390   5.121   4.657
  367W        W  302   1.939   3.720   0.625
  368W        W  303   2.736   1.065   1.027
  369W        W  304   3.412   0.818   3.439
  370W        W  305   1.030   3.538   1.078
  371W        W  306   1.182   3.122   0.659
  372W        W  307   5.302   1.262   3.793
  373W        W  308   0.821   2.055   1.792
  374W        W  309   1.727   2.383   1.226
  375W        W  310   2.371   5.169   1.255
  376W        W  311   4.347   2.121   4.235
  377W        W  312   0.888   2.899   1.629
  378W        W  313   2.003   3.738   3.589
  379W        W  314   2.656   4.980   3.975
  380W        W  315   3.171   5.265   4.302
  381W        W  316   2.173   0.615   2.125
  382W        W  317   2.722   1.748   4.904
  383W        W  318   0.904   1.520   4.225
  384W        W  319   4.966   3.529   4.890
  385W        W  320   1.501   2.878   1.529
  386W        W  321   2.537   1.580   0.265
  387W        W  322   4.144   3.919   4.689
  388W        W  323   5.305   0.931   1.774
  389W        W  324   5.143   4.725   3.443
  390W        W  325   3.344   3.171   0.022
  391W        W  326   0.419   4.571   0.188
  392W        W  327   1.183   3.537   4.088
  393W        W  328   0.438   0.559   2.236
  394W        W  329   2.379   0.547   3.527
  395W        W  330   0.475   2.159   0.009
  396W        W  331   4.404   0.538   0.223
  397W        W  332   5.116   4.201   4.292
  398W        W  333   3.646   2.148   4.943
  399W        W  334   4.491   5.024   0.280
  400W        W  335   0.459   0.230   0.937
  401W        W  336   3.223   3.460   1.377
  402W        W  337   4.421   4.786   1.284
  403W        W  338   0.824   1.487   1.152
  404W        W  339   0.477   4.237   2.655
  405W        W  340   1.107   3.352   1.611
  406W        W  341   4.948   1.060   3.528
  407W        W  342   1.015   2.885   1.149
  408W        W  343   4.748   4.016   4.005
  409W        W  344   4.754   3.241   4.528
  410W        W  345   1.179   2.736   3.227
  411W        W  346   2.055   0.701   0.279
  412W        W  347   3.025   1.513   1.746
  413W        W  348   1.057   0.501   0.455
  414W        W  349   2.440   4.605   0.358
  415W        W  350   1.142   4.821   2.253
  416W        W  351   2.970   1.724   4.437
  417W        W  352   4.115   0.530   0.668
  418W        W  353   4.288   4.505   0.059
  419W        W  354   3.946   0.382   4.541
  420W        W  355   4.140   4.282   2.986
  421W        W  356   1.749   1.465   2.585
  422W        W  357   3.216   3.276   2.316
  423W        W  358   2.747   0.136   1.286
  424W        W  359   3.877   4.271   0.340
  425W        W  360   1.490   4.725   3.527
  426W        W  361   1.997   0.073   1.483
  427W        W  362   2.527   3.358   2.812
  428W        W  363   0.245   2.351   1.304
  429W        W  364   2.137   1.964   0.858
  430W        W  365   0.918   2.266   4.830
  431W        W  366   1.675   0.942   0.050
  432W        W  367   4.862   4.609   1.073
  433W        W  368   5.142   0.283   0.370
  434W        W  369   2.939   2.800   4.849
  435W        W  370   4.319   4.809   1.809
  436W        W  371   5.076   1.261   0.299
  437W        W  372   5.003   1.563   1.237
  438W        W  373   0.511   4.005   3.666
  439W        W  374   4.561   0.774   3.953
  440W        W  375   1.479   0.454   4.037
  441W        W  376   2.289   4.162   3.525
  442W        W  377   2.717   0.508   2.193
  443W        W  378   1.828   2.057   2.807
  444W        W  379   4.424   2.931   3.614
  445W        W  380   0.360   2.925   4.544
  446W        W  381   1.576   4.910   3.064
  447W        W  382   4.131   1.572   3.565
  448W        W  383   4.551   0.460   2.028
  449W        W  384   1.726   4.314   5.184
  450W        W  385   4.849   4.734   1.902
  451W        W  386   4.105   4.469   4.595
  452W        W  387   0.108   1.706   2.709
  453W        W  388   0.054   3.225   0.054
  454W        W  389   1.921   0.203   2.010
  455W        W  390   0.870   4.736   4.327
  456W        W  391   4.352   3.754   3.088
  457W        W  392   5.007   1.883   3.029
  458W        W  393   3.211   2.419   4.573
  459W        W  394   3.669   4.000   4.399
  460W        W  395   1.969   1.013   3.954
  461W        W  396   0.328   4.087   0.016
  462W        W  397   1.223   4.890   3.999
  463W        W  398   5.266   3.273   4.580
  464W        W  399   3.569   3.957   0.640
  465W        W  400   2.117   4.179   0.407
  466W        W  401   3.663   1.532   0.788
  467W        W  402   1.847   2.184   1.817
  468W        W  403   2.105   1.089   2.723
  469W        W  404   0.315   2.576   3.068
  470W        W  405   3.949   1.910   3.867
  471W        W  406   2.473   3.871   0.770
  472W        W  407   1.231   4.283   2.275
  473W        W  408   0.149   0.635   0.283
  474W        W  409   0.684   5.205   4.314
  475W        W  410   4.175   2.087   2.495
  476W        W  411   1.044   3.041   3.761
  477W        W  412   4.748   1.628   0.005
  478W        W  413   0.722   3.368   3.137
  479W        W  414   1.000   4.125   1.826
  480W        W  415   0.702   3.799   0.229
  481W        W  416   1.285   1.293   2.826
  482W        W  417   3.389   3.513   4.353
  483W        W  418   4.157   2.362   0.314
  484W        W  419   0.134   1.158   4.804
  485W        W  420   3.331   1.536   0.432
  486W        W  421   3.150   4.978   3.787
  487W        W  422   4.324   0.093   2.781
  488W        W  423   2.296   0.492   4.951
  489W        W  424   4.984   4.353   3.677
  490W        W  425   0.715   1.595   1.627
  491W        W  426   1.361   2.099   1.676
  492W        W  427   0.673   0.424   2.698
  493W        W  428   0.419   1.054   0.280
  494W        W  429   3.319   2.990   1.761
  495W        W  430   2.041   4.337   1.461
  496W        W  431   0.967   1.891   2.731
  497W        W  432   2.253   0.987   1.305
  498W        W  433   2.093   3.124   4.565
  499W        W  434   3.968   1.155   3.279
  500W        W  435   2.871   1.475   1.192
  501W        W  436   4.721   3.097   1.389
  502W        W  437   3.348   3.890   1.709
  503W        W  438   0.443   1.886   1.294
  504W        W  439   3.234   3.762   4.767
  505W        W  440   1.621   2.492   2.937
  506W        W  441   3.549   3.405   3.172
  507W        W  442   1.243   5.067   2.693
  508W        W  443   0.147   0.926   4.343
  509W        W  444   3.138   1.289   3.593
  510W        W  445   5.205   3.126   2.303
  511W        W  446   2.775   2.829   0.567
  512W        W  447   3.627   4.582   4.661
  513W        W  448   3.580   2.052   0.926
  514W        W  449   4.547   2.219   0.806
  515W        W  450   2.280   4.267   3.030
  516W        W  451   1.863   2.754   0.248
  517W        W  452   2.690   0.209   0.820
  518W        W  453   1.705   4.838   3.959
  519W        W  454   0.250   1.881   3.178
  520W        W  455   1.425   2.733   3.913
  521W        W  456   0.374   3.765   1.762
  522W        W  457   3.714   2.238   1.515
  523W        W  458   2.000   0.595   1.617
  524W        W  459   1.619   4.001   2.736
  525W        W  460   5.281   2.411   0.749
  526W        W  461   3.088   1.037   1.940
  527W        W  462   3.502   4.579   0.443
  528W        W  463   2.221   3.423   3.863
  529W        W  464   4.406   0.589   3.012
  530W        W  465   3.309   0.361   4.895
  531W        W  466   3.342   3.876   3.057
  532W        W  467   0.474   2.732   0.997
  533W        W  468   4.318   3.044   1.850
  534W        W  469   0.980   0.080   2.561
  535W        W  470   4.413   2.000   3.714
  536W        W  471   5.079   5.161   2.197
  537W        W  472   4.560   1.313   1.327
  538W        W  473   2.759   4.480   5.185
  539W        W  474   4.954   1.803   2.083
  540W        W  475   3.245   2.541   1.426
  541W        W  476   4.251   4.209   1.143
  542W        W  477   3.107   2.521   2.477
  543W        W  478   3.120   4.659   2.110
  544W        W  479   5.232   0.223   4.683
  545W        W  480   0.542   1.253   4.429
  546W        W  481   4.975   2.846   3.848
  547W        W  482   1.815   2.947   2.532
  548W        W  483   0.920   3.660   2.021
  549W        W  484   3.324   0.785   1.080
  550W        W  485   1.480   0.491   2.480
  551W        W  486   4.172   1.541   1.542
  552W        W  487   4.100   0.872   3.804
  553W        W  488   4.573   1.227   0.286
  554W        W  489   1.868   4.031   3.167
  555W        W  490   1.448   1.743   2.877
  556W        W  491   4.649   4.939   2.387
  557W        W  492   1.802   3.904   1.533
  558W        W  493   4.886   4.667   4.555
  559W        W  494   4.110   1.156   2.325
  560W        W  495   2.183   1.679   2.717
  561W        W  496   5.033   0.895   4.116
  562W        W  497   1.351   5.297   2.246
  563W        W  498   2.152   1.949   2.297
  564W        W  499   3.763   1.270   4.991
  565W        W  500   2.308   1.462   1.235
  566W        W  501   0.004   0.200   1.425
  567W        W  502   2.588   4.129   0.412
  568W        W  503   3.872   2.456   2.337
  569W        W  504   3.652   0.648   1.997
  570W        W  505   0.912   2.006   3.937
  571W        W  506   0.731   2.493   3.338
  572W        W  507   0.593   1.625   2.978
  573W        W  508   0.076   2.327   3.459
  574W        W  509   1.022   0.515   2.346
  575W        W  510   2.583   0.830   3.108
  576W        W  511   2.400   0.676   0.853
  577W        W  512   2.041   1.741   1.844
  578W        W  513   0.011   1.693   0.960
  579W        W  514   3.804   2.095   2.858
  580W        W  515   4.627   0.728   1.048
  581W        W  516   3.703   0.416   1.087
  582W        W  517   1.083   1.137   1.663
  583W        W  518   0.175   3.361   4.319
  584W        W  519   4.374   1.758   4.629
  585W        W  520   4.736   3.929   3.417
  586W        W  521   4.704   0.219   3.965
  587W        W  522   4.953   0.891   0.698
  588W        W  523   0.816   2.434   0.230
  589W        W  524   1.348   2.692   2.536
  590W        W  525   2.952   1.424   3.200
  591W        W  526   1.776   4.356   2.395
  592W        W  527   0.709   3.893   4.205
  593W        W  528   2.042   2.718   4.343
  594W        W  529   4.417   1.572   2.438
  595W        W  530   3.057   0.673   2.995
  596W        W  531   1.979   0.798   3.111
  597W        W  532   0.129   3.309   4.826
  598W        W  533   2.475   2.502   2.281
  599W        W  534   2.018   3.793   5.200
  600W        W  535   1.926   4.594   0.507
  601W        W  536   1.316   3.771   2.331
  602W        W  537   2.003   4.586   3.402
  603W        W  538   3.045   4.759   3.145
  604W        W  539   0.385   2.845   1.579
  605W        W  540   2.989   4.079   0.754
  606W        W  541   0.507   0.795   4.753
  607W        W  542   3.281   0.676   1.712
  608W        W  543   2.256   1.892   4.911
  609W        W  544   0.158   5.087   2.748
  610W        W  545   1.704   3.886   3.979
  611W        W  546   2.688   2.312   1.502
  612W        W  547   5.312   0.102   2.062
  613W        W  548   3.910   1.824   4.340
  614W        W  549   1.715   1.113   0.563
  615W        W  550   3.521   4.804   3.436
  616W        W  551   2.378   0.415   2.915
  617W        W  552   1.582   0.616   0.411
  618W        W  553   2.836   0.463   4.258
  619W        W  554   5.049   1.923   0.888
  620W        W  555   1.630   1.472   0.131
  621W        W  556   1.724   4.688   1.649
  622W        W  557   5.303   5.112   4.277
  623W        W  558   1.263   1.564   1.896
  624W        W  559   4.008   1.347   4.553
  625W        W  560   3.796   3.584   4.771
  626W        W  561   1.664   1.921   2.325
  627W        W  562   0.062   2.835   3.491
  628W        W  563   1.544   3.041   2.903
  629W        W  564   4.328   4.508   0.747
  630W        W  565   0.387   1.005   3.388
  631W        W  566   3.865   1.486   0.292
  632W        W  567   2.182   1.099   0.673
  633W        W  568   0.905   0.590   5.227
  634W        W  569   0.341   3.745   2.874
  635W        W  570   3.232   4.276   4.581
  636W        W  571   1.248   5.182   1.040
  637W        W  572   4.431   1.901   2.056
  638W        W  573   0.157   2.842   5.300
  639W        W  574   0.101   2.128   5.242
  640W        W  575   3.637   0.754   3.873
  641W        W  576   2.708   1.741   2.904
  642W        W  577   4.487   1.245   2.002
  643W        W  578   0.783   5.054   2.428
  644W        W  579   0.564   0.360   0.088
  645W        W  580   0.022   3.262   0.551
  646W        W  581   3.069   0.025   3.499
  647W        W  582   2.977   1.990   3.317
  648W        W  583   5.285   2.349   3.003
  649W        W  584   0.775   1.418   0.516
  650W        W  585   2.474   2.811   3.604
  651W        W  586   3.485   1.263   1.732
  652W        W  587   2.016   3.390   2.638
  653W        W  588   4.655   0.349   5.266
  654W        W  589   1.242   0.450   2.934
  655W        W  590   3.623   2.476   1.082
  656W        W  591   2.323   2.271   4.481
  657W        W  592   1.449   2.225   4.050
  658W        W  593   4.897   3.914   0.413
  659W        W  594   0.223   4.670   1.932
  660W        W  595   2.270   1.947   4.084
  661W        W  596   0.783   0.819   1.985
  662W        W  597   0.740   1.324   0.008
  663W        W  598   3.927   0.628   3.332
  664W        W  599   3.454   1.694   2.176
  665W        W  600   1.077   1.662   3.200
  666W        W  601   5.226   4.667   4.084
  667W        W  602   2.237   4.949   1.680
  668W        W  603   4.886   5.033   4.007
  669W        W  604   5.198   1.523   3.365
  670W        W  605   0.985   0.972   0.621
  671W        W  606   1.408   0.244   0.885
  672W        W  607   1.082   3.703   0.604
  673W        W  608   4.640   2.615   1.093
  674W        W  609   3.564   0.263   4.130
  675W        W  610   1.888   5.141   0.410
  676W        W  611   1.149   2.508   4.350
  677W        W  612   3.178   4.573   2.635
  678W        W  613   0.994   4.250   0.517
  679W        W  614   5.122   1.854   1.609
  680W        W  615   3.123   0.920   0.669
  681W        W  616   5.262   2.679   5.195
  682W        W  617   1.467   4.793   4.426
  683W        W  618   2.765   4.598   4.301
  684W        W  619   3.387   4.374   3.676
  685W        W  620   1.214   2.485   1.400
  686W        W  621   3.132   3.479   3.490
  687W        W  622   3.391   4.376   1.758
  688W        W  623   0.666   4.821   5.205
  689W        W  624   4.159   4.112   3.464
  690W        W  625   1.887   3.459   4.224
  691W        W  626   0.790   4.316   3.078
  692W        W  627   0.481   2.473   5.261
  693W        W  628   4.635   0.160   3.190
  694W        W  629   4.606   2.796   4.664
  695W        W  630   2.269   3.610   4.675
  696W        W  631   4.706   4.239   0.039
  697W        W  632   1.753   1.443   1.548
  698W        W  633   3.800   4.401   0.860
  699W        W  634   3.248   4.332   3.115
  700W        W  635   0.317   4.183   2.173
  701W        W  636   0.166   3.346   1.980
  702W        W  637   2.951   2.184   2.856
  703W        W  638   4.589   3.140   0.426
  704W        W  639   4.135   2.600   4.883
  705W        W  640   0.796   3.360   5.274
  706W        W  641   1.971   3.200   3.451
  707W        W  642   3.107   1.796   2.580
  708W        W  643   3.164   5.216   3.281
  709W        W  644   3.229   0.414   2.202
  710W        W  645   3.551   1.141   4.109
  711W        W  646   4.712   3.124   2.219
  712W        W  647   4.436   0.542   4.415
  713W        W  648   3.840   2.943   2.620
  714W        W  649   3.193   1.950   4.864
  715W        W  650   2.258   2.079   3.069
  716W        W  651   2.403   2.734   4.743
  717W        W  652   4.051   2.945   0.354
  718W        W  653   3.849   3.094   3.476
  719W        W  654   1.072   0.769   3.924
  720W        W  655   0.762   4.440   3.936
  721W        W  656   1.794   1.750   5.159
  722W        W  657   3.132   5.266   1.498
  723W        W  658   5.065   4.555   2.329
  724W        W  659   3.869   1.763   4.811
  725W        W  660   0.602   2.830   4.136
  726W        W  661   3.174   3.254   4.893
  727W        W  662   1.868   0.830   0.954
  728W        W  663   1.265   1.614   1.375
  729W        W  664   0.444   4.695   2.945
  730W        W  665   1.875   4.538   2.857
  731W        W  666   1.559   3.231   3.872
  732W        W  667   1.769   1.285   3.083
  733W        W  668   1.451   4.428   4.079
  734W        W  669   2.855   2.386   0.208
  735W        W  670   2.459   2.630   1.795
  736W        W  671   0.606   2.606   1.952
  737W        W  672   0.713   0.280   1.903
  738W        W  673   2.713   0.276   3.748
  739W        W  674   2.123   3.294   2.183
  740W        W  675   2.993   3.224   3.070
  741W        W  676   3.378   4.876   1.696
  742W        W  677   3.972   0.430   2.872
  743W        W  678   2.656   0.287   4.677
  744W        W  679   1.909   4.672   1.161
  745W        W  680   4.940   0.608   3.154
  746W        W  681   1.024   4.775   3.109
  747W        W  682   4.626   1.921   5.006
  748W        W  683   0.562   3.135   2.657
  749W        W  684   1.019   0.893   4.840
  750W        W  685   0.233   4.039   1.216
  751W        W  686   3.991   3.732   0.601
  752W        W  687   1.879   2.449   3.886
  753W        W  688   1.384   0.773   0.882
  754W        W  689   3.185   3.160   0.596
  755W        W  690   0.346   0.461   5.091
  756W        W  691   3.190   0.088   3.040
  757W        W  692   2.471   3.553   1.848
  758W        W  693   5.149   2.816   0.984
  759W        W  694   2.205   0.621   4.112
  760W        W  695   2.975   3.630   3.973
  761W        W  696   0.796   2.223   0.872
  762W        W  697   4.789   3.308   4.023
  763W        W  698   3.866   3.825   1.531
  764W        W  699   2.689   3.239   3.894
  765W        W  700   0.225   3.749   4.024
  766W        W  701   3.943   1.855   1.229
  767W        W  702   3.946   3.294   0.894
  768W        W  703   4.884   1.358   2.314
  769W        W  704   1.381   3.183   1.106
  770W        W  705   4.497   1.206   3.746
  771W        W  706   4.112   0.153   3.304
  772W        W  707   0.140   4.969   3.251
  773W        W  708   3.735   3.359   2.367
  774W        W  709   2.836   5.035   1.114
  775W        W  710   0.090   4.728   0.558
  776W        W  711   2.834   1.218   5.169
  777W        W  712   1.784   0.406   1.185
  778W        W  713   2.319   4.413   2.570
  779W        W  714   0.623   3.180   2.008
  780W        W  715   4.090   1.694   2.904
  781W        W  716   1.470   1.721   3.958
  782W        W  717   0.630   0.701   3.704
  783W        W  718   2.774   3.642   4.737
  784W        W  719   2.545   3.586   4.223
  785W        W  720   0.859   0.689   3.156
  786W        W  721   5.038   4.059   4.927
  787W        W  722   4.026   0.824   4.275
  788W        W  723   4.323   0.081   4.284
  789W        W  724   1.686   3.383   1.390
  790W        W  725   3.899   0.550   0.080
  791W        W  726   2.143   1.152   3.429
  792W        W  727   4.101   0.007   1.452
  793W        W  728   4.035   3.454   1.831
  794W        W  729   4.006   2.052   3.348
  795W        W  730   3.181   0.126   4.474
  796W        W  731   3.925   3.905   3.875
  797W        W  732   4.557   0.964   2.559
  798W        W  733   2.641   1.225   3.627
  799W        W  734   2.201   3.071   5.112
  800W        W  735   1.119   2.998   4.258
  801W        W  736   3.994   3.089   4.965
  802W        W  737   4.392   2.397   2.142
  803W        W  738   4.785   3.024   2.693
  804W        W  739   1.611   3.027   4.340
  805W        W  740   2.255   4.875   0.768
  806W        W  741   0.085   3.020   1.166
  807W        W  742   3.667   1.706   1.677
  808W        W  743   4.579   3.818   5.101
  809W        W  744   4.180   1.018   1.256
  810W        W  745   5.192   4.294   0.734
  811W        W  746   0.073   2.911   2.814
  812W        W  747   2.339   3.709   0.290
  813W        W  748   0.956   1.011   4.310
  814W        W  749   0.705   2.208   2.280
  815W        W  750   2.775   3.630   3.194
  816W        W  751   4.276   0.503   2.516
  817W        W  752   2.077   1.202   0.153
  818W        W  753   2.047   3.931   1.092
  819W        W  754   0.949   2.932   0.242
  820W        W  755   2.737   2.586   4.376
  821W        W  756   0.159   0.128   3.440
  822W        W  757   4.874   3.704   4.382
  823W        W  758   2.759   2.582   1.062
  824W        W  759   3.886   3.573   4.282
  825W        W  760   3.887   4.793   1.484
  826W        W  761   3.743   0.875   4.709
  827W        W  762   2.554   4.921   2.092
  828W        W  763   1.309   3.799   1.542
  829W        W  764   1.956   3.280   0.310
  830W        W  765   4.906   0.856   2.121
  831W        W  766   1.123   0.000   0.269
  832W        W  767   5.201   1.539   5.079
  833W        W  768   2.512   4.150   4.354
  834W        W  769   3.154   1.043   1.427
  835W        W  770   5.205   4.638   1.493
  836W        W  771   2.713   4.813   2.608
  837W        W  772   2.541   2.948   3.085
  838W        W  773   4.025   1.549   2.059
  839W        W  774   1.171   2.033   2.244
  840W        W  775   4.144   1.462   0.931
  841W        W  776   5.281   0.537   1.413
  842W        W  777   4.430   4.369   3.730
  843W        W  778   3.998   0.011   0.941
  844W        W  779   2.444   4.478   3.934
  845W        W  780   3.268   3.619   0.825
  846W        W  781   2.840   3.855   1.543
  847W        W  782   4.950   5.242   2.747
  848W        W  783   0.938   1.961   1.312
  849W        W  784   1.020   4.268   3.501
  850W        W  785   2.632   0.758   3.910
  851W        W  786   0.035   2.162   2.847
  852W        W  787   3.044   1.949   2.136
  853W        W  788   0.323   1.346   1.291
  854W        W  789   2.596   0.960   0.433
  855W        W  790   3.371   4.200   2.189
  856W        W  791   1.311   5.225   3.583
  857W        W  792   2.647   1.234   1.569
  858W        W  793   1.207   3.015   2.042
  859W        W  794   4.062   2.393   3.809
  860W        W  795   0.334   1.952   3.686
  861W        W  796   4.974   2.318   2.060
  862W        W  797   3.058   3.643   5.251
  863W        W  798   3.079   1.712   5.304
  864W        W  799   4.212   2.574   2.669
  865W        W  800   3.852   4.385   1.932
  866W        W  801   2.519   1.611   0.760
  867W        W  802   5.292   0.006   2.551
  868W        W  803   4.095   5.185   0.632
  869W        W  804   0.531   4.287   1.657
  870W        W  805   0.701   3.245   4.428
  871W        W  806   1.519   5.249   4.172
  872W        W  807   2.138   0.148   3.306
  873W        W  808   3.852   5.258   3.488
  874W        W  809   2.000   2.980   3.894
  875W        W  810   3.698   5.030   4.265
  876W        W  811   1.543   2.554   3.494
  877W        W  812   3.328   1.249   2.619
  878W        W  813   1.398   2.637   0.895
  879W        W  814   1.895   1.896   3.748
  880W        W  815   2.647   3.968   5.199
  881W        W  816   3.707   0.787   1.462
  882W        W  817   4.683   4.149   0.910
  883W        W  818   3.205   2.723   0.835
  884W        W  819   2.585   4.936   5.156
  885W        W  820   0.910   2.503   3.841
  886W        W  821   4.464   4.833   4.541
  887W        W  822   0.537   0.034   4.421
  888W        W  823   4.461   3.432   2.630
  889W        W  824   3.793   1.963   0.426
  890W        W  825   3.619   3.959   3.538
  891W        W  826   0.559   2.156   2.865
  892W        W  827   0.480   5.015   0.428
  893W        W  828   1.900   0.620   3.616
  894W        W  829   3.528   0.043   0.656
  895W        W  830   4.111   3.461   0.172
  896W        W  831   3.582   3.624   2.739
  897W        W  832   1.022   3.296   2.391
  898W        W  833   4.003   1.296   4.012
  899W        W  834   3.764   3.326   1.432
  900W        W  835   1.832   2.148   3.304
  901W        W  836   2.798   4.179   4.794
  902W        W  837   3.564   2.215   3.666
  903W        W  838   2.531   0.756   1.731
  904W        W  839   1.375   2.701   0.378
  905W        W  840   2.938   4.604   0.392
  906W        W  841   1.321   4.893   1.430
  907W        W  842   3.113   1.817   3.813
  908W        W  843   3.031   1.427   2.228
  909W        W  844   0.312   4.334   3.995
  910W        W  845   3.241   4.998   0.204
  911W        W  846   4.508   3.899   1.447
  912W        W  847   2.832   0.974   4.287
  913W        W  848   0.844   0.018   5.057
  914W        W  849   2.965   3.433   1.838
  915W        W  850   2.910   4.334   1.724
  916W        W  851   3.000   2.844   2.078
  917W        W  852   1.819   0.085   2.440
  918W        W  853   1.003   4.447   1.432
  919W        W  854   0.693   0.572   4.336
  920W        W  855   4.117   3.312   3.931
  921W        W  856   5.125   0.142   3.032
  922W        W  857   0.452   1.705   0.188
  923W        W  858   0.055   4.218   1.736
  924W        W  859   4.133   5.155   4.353
  925W        W  860   0.547   0.682   0.616
  926W        W  861   1.381   1.260   3.382
  927W        W  862   1.221   0.513   1.291
  928W        W  863   3.149   3.954   3.507
  929W        W  864   5.311   2.818   2.751
  930W        W  865   5.201   1.978   3.514
  931W        W  866   2.622   2.057   0.552
  932W        W  867   2.868   3.289   0.193
  933W        W  868   0.216   2.026   4.173
  934W        W  869   3.120   4.312   4.090
  935W        W  870   1.814   2.285   4.937
  936W        W  871   1.005   0.973   1.131
  937W        W  872   5.078   2.483   4.731
  938W        W  873   0.998   1.824   5.052
  939W        W  874   0.211   3.429   1.424
  940W        W  875   2.430   1.336   3.029
  941W        W  876   3.897   2.655   3.227
  942W        W  877   5.117   4.067   2.298
  943W        W  878   4.527   3.535   0.701
  944W        W  879   4.700   0.105   4.780
  945W        W  880   2.602   1.987   1.107
  946W        W  881   1.363   0.482   3.534
  947W        W  882   5.309   4.972   4.813
  948W        W  883   4.278   2.901   2.330
  949W        W  884   2.726   4.108   3.302
  950W        W  885   3.140   0.426   3.854
  951W        W  886   2.052   1.619   3.266
  952W        W  887   2.953   0.296   1.812
  953W        W  888   0.065   4.263   5.276
  954W        W  889   2.938   3.142   4.395
  955W        W  890   4.234   4.642   3.341
  956W        W  891   0.741   0.500   1.468
  957W        W  892   0.333   3.889   5.095
  958W        W  893   4.204   2.055   1.653
  959W        W  894   5.022   3.441   0.219
  960W        W  895   1.246   1.261   3.901
  961W        W  896   0.542   1.942   5.098
  962W        W  897   0.633   3.882   0.789
  963W        W  898   0.495   0.970   2.877
  964W        W  899   2.395   1.229   4.122
  965W        W  900   2.370   2.605   0.269
  966W        W  901   1.737   3.105   1.936
  967W        W  902   3.167   5.111   2.743
  968W        W  903   1.287   4.168   4.921
  969W        W  904   2.799   4.888   1.600
  970W        W  905   4.763   2.480   4.285
  971W        W  906   3.281   1.268   0.967
  972W        W  907   4.093   2.562   1.783
  973W        W  908   2.366   0.305   0.230
  974W        W  909   1.174   4.374   4.461
  975W        W  910   1.690   0.064   3.588
  976W        W  911   0.907   4.689   0.234
  977W        W  912   1.936   5.275   2.970
  978W        W  913   0.482   3.345   0.307
  979W        W  914   2.695   1.629   4.016
  980W        W  915   4.185   1.137   5.248
  981W        W  916   2.260   4.783   2.919
  982W        W  917   2.323   1.322   4.928
  983W        W  918   0.696   2.265   4.285
  984W        W  919   1.837   0.190   4.919
  985W        W  920   3.121   2.499   3.496
  986W        W  921   0.057   0.816   2.520
  987W        W  922   4.848   0.730   0.244
  988W        W  923   2.760   0.361   3.233
  989W        W  924   0.446   2.396   0.602
  990W        W  925   3.531   1.628   4.032
  991W        W  926   0.030   3.355   3.804
  992W        W  927   3.770   4.877   1.996
  993W        W  928   0.976   3.186   4.843
  994W        W  929   3.028   0.845   2.449
  995W        W  930   1.337   2.169   2.655
  996W        W  931   0.095   4.495   0.993
  997W        W  932   1.278   4.701   0.777
  998W        W  933   2.668   2.619   2.709
  999W        W  934   1.523   3.993   0.515
 1000W        W  935   1.052   4.063   1.086
 1001W        W  936   0.435   4.837   4.069
 1002W        W  937   4.784   0.512   2.629
 1003W        W  938   4.877   5.116   1.182
 1004W        W  939   1.318   3.592   2.829
 1005W        W  940   0.478   0.041   2.292
 1006W        W  941   1.224   3.999   0.121
 1007W        W  942   0.348   0.673   1.123
 1008W        W  943   1.483   1.029   4.858
 1009W        W  944   1.708   0.751   2.076
 1010W        W  945   3.208   3.215   3.942
 1011W        W  946   4.390   2.988   2.990
 1012W        W  947   0.280   3.199   3.113
 1013W        W  948   0.326   2.924   2.310
 1014W        W  949   0.760   4.034   2.286
 1015W        W  950   0.875   4.126   5.249
 1016W        W  951   1.512   3.582   1.927
 1017W        W  952   3.860   3.854   3.074
 1018W        W  953   0.177   0.338   2.604
 1019W        W  954   3.785   4.883   3.818
 1020W        W  955   3.160   0.896   3.902
 1021W        W  956   4.343   3.675   4.306
 1022W        W  957   2.572   4.152   1.213
 1023W        W  958   3.339   0.812   5.022
 1024W        W  959   4.332   4.038   0.465
 1025W        W  960   2.858   2.827   1.520
 1026W        W  961   1.368   3.893   3.199
 1027W        W  962   1.614   0.962   2.646
 1028W        W  963   1.338   2.103   1.086
 1029W        W  964   1.359   1.504   5.037
 1030W        W  965   5.231   0.262   3.989
 1031W        W  966   3.596   3.179   4.621
 1032W        W  967   4.647   2.190   1.738
 1033W        W  968   0.789   1.340   2.614
 1034W        W  969   1.079   3.720   5.054
 1035W        W  970   3.601   1.219   2.222
 1036W        W  971   4.261   0.368   1.139
 1037W        W  972   4.995   3.557   2.119
 1038W        W  973   0.104   2.643   1.999
 1039W        W  974   1.318   0.888   5.308
 1040W        W  975   4.129   4.191   4.209
 1041W        W  976   3.207   2.686   0.328
 1042W        W  977   1.787   2.819   4.814
 1043W        W  978   5.002   2.970   4.862
 1044W        W  979   4.775   2.242   3.425
 1045W        W  980   4.621   1.408   3.308
 1046W        W  981   4.328   2.428   3.379
 1047W        W  982   4.308   2.824   1.427
 1048W        W  983   2.330   3.071   1.553
 1049W        W  984   0.198   2.492   4.311
 1050W        W  985   0.108   4.605   4.461
 1051W        W  986   3.617   4.457   4.151
 1052W        W  987   3.514   2.304   3.209
 1053W        W  988   1.500   4.229   3.561
 1054W        W  989   3.856   1.014   0.903
 1055W        W  990   4.172   3.748   1.050
 1056W        W  991   3.358   3.737   2.347
 1057W        W  992   3.896   4.434   3.686
 1058W        W  993   0.130   5.050   1.092
 1059W        W  994   4.261   0.036   2.248
 1060W        W  995   1.061   1.783   0.809
 1061W        W  996   0.795   2.712   4.610
 1062W        W  997   0.136   1.487   4.427
 1063W        W  998   1.392   3.160   0.159
 1064W        W  999   3.754   5.147   0.242
 1065W        W 1000   5.081   2.951   0.467
 1066W        W 1001   3.317   0.648   4.389
 1067W        W 1002   1.370   1.476   4.422
 1068W        W 1003   2.761   0.495   5.151
 1069W        W 1004   2.600   1.427   2.529
 1070W        W 1005   2.804   4.521   0.866
 1071W        W 1006   4.681   4.524   4.136
 1072W        W 1007   1.741   3.917   4.843
 1073W        W 1008   3.110   2.136   1.198
 1074W        W 1009   4.584   4.345   2.392
 1075W        W 1010   1.420   4.401   3.078
 1076W        W 1011   0.961   2.456   2.775
 1077W        W 1012   4.007   4.724   0.479
 1078W        W 1013   3.290   0.504   0.327
 1079W        W 1014   4.148   0.708   2.055
 1080W        W 1015   4.393   1.285   2.912
 1081W        W 1016   4.811   1.409   4.073
 1082W        W 1017   1.262   1.729   0.324
 1083W        W 1018   4.577   4.932   0.755
 1084W        W 1019   2.102   4.713   2.217
 1085W        W 1020   0.847   0.554   0.953
 1086W        W 1021   4.109   0.910   2.770
 1087W        W 1022   4.619   4.112   4.463
 1088W        W 1023   3.702   0.301   3.658
 1089W        W 1024   4.599   2.067   0.311
 1090W        W 1025   5.124   2.290   3.900
 1091W        W 1026   4.060   2.295   0.810
 1092W        W 1027   0.653   3.195   1.338
 1093W        W 1028   0.472   1.767   0.736
 1094W        W 1029   4.179   2.381   1.297
 1095W        W 1030   3.554   2.438   0.612
 1096W        W 1031   3.182   4.641   5.001
 1097W        W 1032   2.466   3.508   5.130
 1098W        W 1033   3.628   0.794   2.932
 1099W        W 1034   5.271   0.726   4.640
 1100W        W 1035   3.981   3.353   2.910
 1101W        W 1036   5.079   0.356   1.003
 1102W        W 1037   0.885   3.588   3.713
 1103W        W 1038   0.737   3.794   1.432
 1104W        W 1039   1.295   1.553   2.403
 1105W        W 1040   2.170   1.249   1.755
 1106W        W 1041   1.983   2.641   3.395
 1107W        W 1042   3.615   2.903   0.600
 1108W        W 1043   4.623   1.714   1.615
 1109W        W 1044   2.000   3.476   1.762
 1110W        W 1045   4.417   2.986   5.287
 1111W        W 1046   0.403   1.249   1.837
 1112W        W 1047   3.382   1.831   3.009
 1113W        W 1048   1.358   2.416   5.029
 1114W        W 1049   4.583   4.506   4.963
 1115W        W 1050   3.109   4.940   0.734
 1116W        W 1051   3.684   4.144   4.880
 1117W        W 1052   1.715   0.664   4.570
 1118W        W 1053   3.544   4.471   5.215
 1119W        W 1054   0.924   2.653   0.656
 1120W        W 1055   0.875   4.812   3.596
 1121W        W 1056   2.440   3.302   3.360
 1122W        W 1057   1.712   1.865   1.300
 1123W        W 1058   3.224   4.789   4.291
 1124W        W 1059   3.781   3.830   2.090
 1125W        W 1060   2.062   0.241   4.403
 1126W        W 1061   0.456   1.468   4.997
 1127W        W 1062   4.786   1.585   2.756
 1128W        W 1063   1.756   0.347   3.066
 1129W        W 1064   1.831   3.399   4.930
 1130W        W 1065   0.942   1.375   4.751
 1131W        W 1066   3.400   3.162   2.752
 1132W        W 1067   0.079   0.037   5.060
 1133W        W 1068   1.208   1.215   0.173
 1134W        W 1069   3.982   1.094   1.725
 1135W        W 1070   3.412   5.034   4.790
 1136W        W 1071   2.205   2.079   1.419
 1137W        W 1072   1.669   1.266   2.024
 1138W        W 1073   2.598   2.397   3.181
 1139W        W 1074   4.726   1.332   0.854
 1140W        W 1075   1.049   3.649   4.564
 1141W        W 1076   0.194   1.397   0.563
 1142W        W 1077   1.983   3.998   4.445
 1143W        W 1078   2.151   4.879   3.791
 1144W        W 1079   3.299   3.683   0.290
 1145W        W 1080   0.541   4.343   4.438
 1146W        W 1081   0.584   1.152   0.844
 1147W        W 1082   2.997   1.030   0.128
 1148W        W 1083   4.725   0.966   4.477
 1149W        W 1084   4.906   3.683   2.589
 1150W        W 1085   1.768   3.504   3.122
 1151W        W 1086   1.457   5.195   4.785
 1152W        W 1087   4.006   3.563   3.483
 1153W        W 1088   0.842   2.801   2.381
 1154W        W 1089   3.671   3.115   4.169
 1155W        W 1090   3.320   1.618   1.311
 1156W        W 1091   1.851   1.437   0.903
 1157W        W 1092   2.823   3.784   0.027
 1158W        W 1093   2.813   2.265   4.840
 1159W        W 1094   4.153   3.176   4.477
 1160W        W 1095   2.416   2.375   5.067
 1161W        W 1096   2.343   2.151   1.891
 1162W        W 1097   3.454   2.870   3.212
 1163W        W 1098   0.677   4.330   1.062
 1164W        W 1099   2.627   4.006   2.738
 1165W        W 1100   4.498   1.762   1.090
 1166W        W 1101   0.290   2.152   1.747
 1167W        W 1102   3.453   2.051   4.421
 1168W        W 1103   3.538   0.388   3.188
 1169W        W 1104   1.082   0.874   2.700
 1170W        W 1105   0.357   2.305   4.738
 1171W        W 1106   3.431   2.857   2.286
 1172W        W 1107   1.431   4.965   0.350
 1173W        W 1108   0.831   0.841   0.098
 1174W        W 1109   2.297   0.418   1.258
 1175W        W 1110   4.921   3.252   0.859
 1176W        W 1111   2.875   3.037   2.585
 1177W        W 1112   3.146   4.066   2.632
 1178W        W 1113   3.447   2.809   3.778
 1179W        W 1114   4.253   0.876   4.743
 1180W        W 1115   0.338   4.225   0.579
 1181W        W 1116   3.643   3.671   1.105
 1182W        W 1117   4.161   3.972   1.864
 1183W        W 1118   4.077   0.149   0.345
 1184W        W 1119   2.149   1.251   2.242
 1185W        W 1120   3.749   0.777   2.444
 1186W        W 1121   3.098   4.587   1.300
 1187W        W 1122   1.168   4.044   3.956
 1188W        W 1123   0.012   2.733   0.736
 1189W        W 1124   2.322   2.940   2.530
 1190W        W 1125   1.418   1.971   4.785
 1191W        W 1126   3.622   1.688   5.216
 1192W        W 1127   0.758   2.014   3.449
 1193W        W 1128   1.068   3.131   2.843
 1194W        W 1129   0.725   5.136   2.917
 1195W        W 1130   3.406   3.891   3.990
 1196W        W 1131   1.437   1.210   1.113
 1197W        W 1132   0.587   0.964   1.454
 1198W        W 1133   5.305   1.297   0.731
 1199W        W 1134   1.090   1.997   4.463
 1200W        W 1135   3.612   1.712   3.496
 1201W        W 1136   0.549   3.309   3.941
 1202W        W 1137   3.058   2.303   0.655
 1203W        W 1138   2.750   2.106   4.253
 1204W        W 1139   3.196   2.041   1.689
 1205W        W 1140   0.878   0.300   3.423
 1206W        W 1141   1.638   2.417   4.457
 1207W        W 1142   0.610   4.635   0.666
 1208W        W 1143   0.049   2.170   0.869
 1209W        W 1144   1.589   2.652   1.992
 1210W        W 1145   4.729   4.435   1.512
 1211W        W 1146   0.476   4.810   4.755
 1212W        W 1147   4.002   2.228   4.598
 1213W        W 1148   4.011   5.067   3.079
 1214W        W 1149   4.414   3.095   0.980
 1215W        W 1150   3.453   2.864   4.986
 1216W        W 1151   3.100   1.357   4.105
 1217W        W 1152   3.603   1.220   3.639
 1218W        W 1153   2.046   4.245   1.992
 1219W        W 1154   4.814   1.731   3.654
 1220W        W 1155   2.827   0.648   1.381
 1221W        W 1156   2.522   4.622   4.741
 1222W        W 1157   0.120   3.358   2.589
 1223W        W 1158   1.769   1.382   3.700
 1224W        W 1159   5.072   3.065   3.206
 1225W        W 1160   4.793   0.604   4.794
 1226W        W 1161   3.196   2.389   5.090
 1227W        W 1162   2.464   1.703   4.483
 1228W        W 1163   0.170   3.752   0.442
 1229W        W 1164   1.006   3.420   0.145
 1230W        W 1165   4.852   3.572   3.061
 1231W        W 1166   4.239   2.565   4.354
 1232W        W 1167   2.573   3.096   2.021
 1233W        W 1168   2.600   3.181   4.702
 1234W        W 1169   0.907   0.347   4.729
 1235W        W 1170   1.334   0.162   2.086
 1236W        W 1171   2.958   3.941   4.377
 1237W        W 1172   2.910   0.832   4.807
 1238W        W 1173   0.454   1.099   2.328
 1239W        W 1174   4.878   1.098   2.998
 1240W        W 1175   0.839   1.450   2.135
 1241W        W 1176   4.449   0.872   0.612
 1242W        W 1177   4.858   2.499   0.540
 1243W        W 1178   3.504   3.015   1.081
 1244W        W 1179   0.382   0.531   3.249
 1245W        W 1180   1.950   0.879   4.993
 1246W        W 1181   2.481   2.990   4.293
 1247W        W 1182   0.374   2.519   2.565
 1248W        W 1183   2.248   4.217   4.831
 1249W        W 1184   2.850   3.688   0.491
 1250W        W 1185   2.514   1.599   2.064
 1251W        W 1186   3.794   0.321   2.412
 1252W        W 1187   4.751   3.641   1.142
 1253W        W 1188   0.459   0.065   3.042
 1254W        W 1189   5.032   3.490   3.561
 1255W        W 1190   3.546   2.578   2.772
 1256W        W 1191   0.849   4.799   1.070
 1257W        W 1192   3.161   2.313   4.015
 1258W        W 1193   1.955   1.097   4.491
 1259W        W 1194   0.531   0.211   3.953
 1260W        W 1195   2.818   3.653   1.065
 1261W        W 1196   1.528   4.309   1.440
 1262W        W 1197   2.350   4.015   1.670
 1263W        W 1198   4.812   1.911   4.112
 1264W        W 1199   0.972   0.124   1.147
 1265W        W 1200   1.525   3.455   0.600
 1266W        W 1201   4.301   3.342   1.379
   5.00000   5.00000   5.00000
