Written by MDAnalysis
    8
    1CER6   NOH    1   3.940   4.300   2.830
    1CER6    OH    2   3.970   4.550   2.590
    1CER6   GLA    3   3.960   4.090   3.050
    1CER6   GLB    4   3.760   4.340   2.580
    1CER6   C1A    5   4.460   3.820   2.920
    1CER6   C2A    6   4.870   3.700   2.620
    1CER6   C1B    7   3.280   4.450   2.510
    1CER6   C2B    8   2.780   4.360   2.700
   5.26691   5.26691   5.26691
